
     Program PWSCF v.6.7MaX starts on 11Jan2021 at 18:45:21 

     This program is part of the open-source Quantum ESPRESSO suite
     for quantum simulation of materials; please cite
         "P. Giannozzi et al., J. Phys.:Condens. Matter 21 395502 (2009);
         "P. Giannozzi et al., J. Phys.:Condens. Matter 29 465901 (2017);
          URL http://www.quantum-espresso.org", 
     in publications or presentations arising from this work. More details at
     http://www.quantum-espresso.org/quote

     Parallel version (MPI), running on    24 processors

     MPI processes distributed on     1 nodes
     K-points division:     npool     =      24
     Reading input from nscf.in

     Current dimensions of program PWSCF are:
     Max number of different atomic species (ntypx) = 10
     Max number of k-points (npk) =  40000
     Max angular momentum in pseudopotentials (lmaxx) =  3

     Atomic positions and unit cell read from directory:
     ./si.save/
 
     Message from routine read_pp_mesh:
     mesh size missing, using the one in header

     Subspace diagonalization in iterative solution of the eigenvalue problem:
     a serial algorithm will be used

 
     G-vector sticks info
     --------------------
     sticks:   dense  smooth     PW     G-vecs:    dense   smooth      PW
     Sum         511     511    169                 7631     7631    1471
 


     bravais-lattice index     =            2
     lattice parameter (alat)  =      10.2620  a.u.
     unit-cell volume          =     270.1693 (a.u.)^3
     number of atoms/cell      =            2
     number of atomic types    =            1
     number of electrons       =         8.00
     number of Kohn-Sham states=           16
     kinetic-energy cutoff     =      35.0000  Ry
     charge density cutoff     =     140.0000  Ry
     Exchange-correlation= PBE
                           (   1   4   3   4   0   0   0)
     Non magnetic calculation with spin-orbit


     celldm(1)=  10.262000  celldm(2)=   0.000000  celldm(3)=   0.000000
     celldm(4)=   0.000000  celldm(5)=   0.000000  celldm(6)=   0.000000

     crystal axes: (cart. coord. in units of alat)
               a(1) = (  -0.500000   0.000000   0.500000 )  
               a(2) = (   0.000000   0.500000   0.500000 )  
               a(3) = (  -0.500000   0.500000   0.000000 )  

     reciprocal axes: (cart. coord. in units 2 pi/alat)
               b(1) = ( -1.000000 -1.000000  1.000000 )  
               b(2) = (  1.000000  1.000000  1.000000 )  
               b(3) = ( -1.000000  1.000000 -1.000000 )  


     PseudoPot. # 1 for Si read from file:
     /THL8/home/jwluo/filepool/pseudos/Si_r.upf
     MD5 check sum: 538a76d466da59d525cdbd01722ac2dd
     Pseudo is Norm-conserving + core correction, Zval =  4.0
     Generated using ONCVPSP code by D. R. Hamann
     Using radial grid of 1528 points, 10 beta functions with: 
                l(1) =   0
                l(2) =   0
                l(3) =   1
                l(4) =   1
                l(5) =   1
                l(6) =   1
                l(7) =   2
                l(8) =   2
                l(9) =   2
               l(10) =   2

     atomic species   valence    mass     pseudopotential
        Si             4.00    28.08550     Si( 1.00)

     48 Sym. Ops., with inversion, found (24 have fractional translation)


                                    s                        frac. trans.

      isym =  1     identity                                     

 cryst.   s( 1) = (     1          0          0      )
                  (     0          1          0      )
                  (     0          0          1      )

 cart.    s( 1) = (  1.0000000  0.0000000  0.0000000 )
                  (  0.0000000  1.0000000  0.0000000 )
                  (  0.0000000  0.0000000  1.0000000 )


      isym =  2     180 deg rotation - cart. axis [0,0,1]        

 cryst.   s( 2) = (     0          1         -1      )
                  (     1          0         -1      )
                  (     0          0         -1      )

 cart.    s( 2) = ( -1.0000000  0.0000000  0.0000000 )
                  (  0.0000000 -1.0000000  0.0000000 )
                  (  0.0000000  0.0000000  1.0000000 )


      isym =  3     180 deg rotation - cart. axis [0,1,0]        

 cryst.   s( 3) = (    -1          0          0      )
                  (    -1          0          1      )
                  (    -1          1          0      )

 cart.    s( 3) = ( -1.0000000  0.0000000  0.0000000 )
                  (  0.0000000  1.0000000  0.0000000 )
                  (  0.0000000  0.0000000 -1.0000000 )


      isym =  4     180 deg rotation - cart. axis [1,0,0]        

 cryst.   s( 4) = (     0         -1          1      )
                  (     0         -1          0      )
                  (     1         -1          0      )

 cart.    s( 4) = (  1.0000000  0.0000000  0.0000000 )
                  (  0.0000000 -1.0000000  0.0000000 )
                  (  0.0000000  0.0000000 -1.0000000 )


      isym =  5     180 deg rotation - cart. axis [1,1,0]        

 cryst.   s( 5) = (     0         -1          0      )    f =(  0.2500000 )
                  (    -1          0          0      )       (  0.2500000 )
                  (     0          0         -1      )       (  0.2500000 )

 cart.    s( 5) = (  0.0000000  1.0000000  0.0000000 )    f =( -0.2500000 )
                  (  1.0000000  0.0000000  0.0000000 )       (  0.2500000 )
                  (  0.0000000  0.0000000 -1.0000000 )       (  0.2500000 )


      isym =  6     180 deg rotation - cart. axis [1,-1,0]       

 cryst.   s( 6) = (    -1          0          1      )    f =(  0.2500000 )
                  (     0         -1          1      )       (  0.2500000 )
                  (     0          0          1      )       (  0.2500000 )

 cart.    s( 6) = (  0.0000000 -1.0000000  0.0000000 )    f =( -0.2500000 )
                  ( -1.0000000  0.0000000  0.0000000 )       (  0.2500000 )
                  (  0.0000000  0.0000000 -1.0000000 )       (  0.2500000 )


      isym =  7      90 deg rotation - cart. axis [0,0,-1]       

 cryst.   s( 7) = (     0          1          0      )    f =(  0.2500000 )
                  (     0          1         -1      )       (  0.2500000 )
                  (    -1          1          0      )       (  0.2500000 )

 cart.    s( 7) = (  0.0000000  1.0000000  0.0000000 )    f =( -0.2500000 )
                  ( -1.0000000  0.0000000  0.0000000 )       (  0.2500000 )
                  (  0.0000000  0.0000000  1.0000000 )       (  0.2500000 )


      isym =  8      90 deg rotation - cart. axis [0,0,1]        

 cryst.   s( 8) = (     1          0         -1      )    f =(  0.2500000 )
                  (     1          0          0      )       (  0.2500000 )
                  (     1         -1          0      )       (  0.2500000 )

 cart.    s( 8) = (  0.0000000 -1.0000000  0.0000000 )    f =( -0.2500000 )
                  (  1.0000000  0.0000000  0.0000000 )       (  0.2500000 )
                  (  0.0000000  0.0000000  1.0000000 )       (  0.2500000 )


      isym =  9     180 deg rotation - cart. axis [1,0,1]        

 cryst.   s( 9) = (    -1          0          0      )    f =(  0.2500000 )
                  (     0          0         -1      )       (  0.2500000 )
                  (     0         -1          0      )       (  0.2500000 )

 cart.    s( 9) = (  0.0000000  0.0000000  1.0000000 )    f =( -0.2500000 )
                  (  0.0000000 -1.0000000  0.0000000 )       (  0.2500000 )
                  (  1.0000000  0.0000000  0.0000000 )       (  0.2500000 )


      isym = 10     180 deg rotation - cart. axis [-1,0,1]       

 cryst.   s(10) = (     1          0          0      )    f =(  0.2500000 )
                  (     1         -1          0      )       (  0.2500000 )
                  (     1          0         -1      )       (  0.2500000 )

 cart.    s(10) = (  0.0000000  0.0000000 -1.0000000 )    f =( -0.2500000 )
                  (  0.0000000 -1.0000000  0.0000000 )       (  0.2500000 )
                  ( -1.0000000  0.0000000  0.0000000 )       (  0.2500000 )


      isym = 11      90 deg rotation - cart. axis [0,1,0]        

 cryst.   s(11) = (     0          1         -1      )    f =(  0.2500000 )
                  (    -1          1          0      )       (  0.2500000 )
                  (     0          1          0      )       (  0.2500000 )

 cart.    s(11) = (  0.0000000  0.0000000  1.0000000 )    f =( -0.2500000 )
                  (  0.0000000  1.0000000  0.0000000 )       (  0.2500000 )
                  ( -1.0000000  0.0000000  0.0000000 )       (  0.2500000 )


      isym = 12      90 deg rotation - cart. axis [0,-1,0]       

 cryst.   s(12) = (     0         -1          1      )    f =(  0.2500000 )
                  (     0          0          1      )       (  0.2500000 )
                  (    -1          0          1      )       (  0.2500000 )

 cart.    s(12) = (  0.0000000  0.0000000 -1.0000000 )    f =( -0.2500000 )
                  (  0.0000000  1.0000000  0.0000000 )       (  0.2500000 )
                  (  1.0000000  0.0000000  0.0000000 )       (  0.2500000 )


      isym = 13     180 deg rotation - cart. axis [0,1,1]        

 cryst.   s(13) = (    -1          1          0      )    f =(  0.2500000 )
                  (     0          1          0      )       (  0.2500000 )
                  (     0          1         -1      )       (  0.2500000 )

 cart.    s(13) = ( -1.0000000  0.0000000  0.0000000 )    f =( -0.2500000 )
                  (  0.0000000  0.0000000  1.0000000 )       (  0.2500000 )
                  (  0.0000000  1.0000000  0.0000000 )       (  0.2500000 )


      isym = 14     180 deg rotation - cart. axis [0,1,-1]       

 cryst.   s(14) = (     0          0         -1      )    f =(  0.2500000 )
                  (     0         -1          0      )       (  0.2500000 )
                  (    -1          0          0      )       (  0.2500000 )

 cart.    s(14) = ( -1.0000000  0.0000000  0.0000000 )    f =( -0.2500000 )
                  (  0.0000000  0.0000000 -1.0000000 )       (  0.2500000 )
                  (  0.0000000 -1.0000000  0.0000000 )       (  0.2500000 )


      isym = 15      90 deg rotation - cart. axis [-1,0,0]       

 cryst.   s(15) = (     0          0          1      )    f =(  0.2500000 )
                  (    -1          0          1      )       (  0.2500000 )
                  (     0         -1          1      )       (  0.2500000 )

 cart.    s(15) = (  1.0000000  0.0000000  0.0000000 )    f =( -0.2500000 )
                  (  0.0000000  0.0000000  1.0000000 )       (  0.2500000 )
                  (  0.0000000 -1.0000000  0.0000000 )       (  0.2500000 )


      isym = 16      90 deg rotation - cart. axis [1,0,0]        

 cryst.   s(16) = (     1         -1          0      )    f =(  0.2500000 )
                  (     1          0         -1      )       (  0.2500000 )
                  (     1          0          0      )       (  0.2500000 )

 cart.    s(16) = (  1.0000000  0.0000000  0.0000000 )    f =( -0.2500000 )
                  (  0.0000000  0.0000000 -1.0000000 )       (  0.2500000 )
                  (  0.0000000  1.0000000  0.0000000 )       (  0.2500000 )


      isym = 17     120 deg rotation - cart. axis [-1,-1,-1]     

 cryst.   s(17) = (    -1          0          1      )
                  (    -1          1          0      )
                  (    -1          0          0      )

 cart.    s(17) = (  0.0000000  1.0000000  0.0000000 )
                  (  0.0000000  0.0000000  1.0000000 )
                  (  1.0000000  0.0000000  0.0000000 )


      isym = 18     120 deg rotation - cart. axis [-1,1,1]       

 cryst.   s(18) = (     0          1          0      )
                  (     0          0          1      )
                  (     1          0          0      )

 cart.    s(18) = (  0.0000000 -1.0000000  0.0000000 )
                  (  0.0000000  0.0000000  1.0000000 )
                  ( -1.0000000  0.0000000  0.0000000 )


      isym = 19     120 deg rotation - cart. axis [1,1,-1]       

 cryst.   s(19) = (     1          0         -1      )
                  (     0          0         -1      )
                  (     0          1         -1      )

 cart.    s(19) = (  0.0000000  1.0000000  0.0000000 )
                  (  0.0000000  0.0000000 -1.0000000 )
                  ( -1.0000000  0.0000000  0.0000000 )


      isym = 20     120 deg rotation - cart. axis [1,-1,1]       

 cryst.   s(20) = (     0         -1          0      )
                  (     1         -1          0      )
                  (     0         -1          1      )

 cart.    s(20) = (  0.0000000 -1.0000000  0.0000000 )
                  (  0.0000000  0.0000000 -1.0000000 )
                  (  1.0000000  0.0000000  0.0000000 )


      isym = 21     120 deg rotation - cart. axis [1,1,1]        

 cryst.   s(21) = (     0          0         -1      )
                  (     0          1         -1      )
                  (     1          0         -1      )

 cart.    s(21) = (  0.0000000  0.0000000  1.0000000 )
                  (  1.0000000  0.0000000  0.0000000 )
                  (  0.0000000  1.0000000  0.0000000 )


      isym = 22     120 deg rotation - cart. axis [-1,1,-1]      

 cryst.   s(22) = (    -1          1          0      )
                  (    -1          0          0      )
                  (    -1          0          1      )

 cart.    s(22) = (  0.0000000  0.0000000  1.0000000 )
                  ( -1.0000000  0.0000000  0.0000000 )
                  (  0.0000000 -1.0000000  0.0000000 )


      isym = 23     120 deg rotation - cart. axis [1,-1,-1]      

 cryst.   s(23) = (     0          0          1      )
                  (     1          0          0      )
                  (     0          1          0      )

 cart.    s(23) = (  0.0000000  0.0000000 -1.0000000 )
                  ( -1.0000000  0.0000000  0.0000000 )
                  (  0.0000000  1.0000000  0.0000000 )


      isym = 24     120 deg rotation - cart. axis [-1,-1,1]      

 cryst.   s(24) = (     1         -1          0      )
                  (     0         -1          1      )
                  (     0         -1          0      )

 cart.    s(24) = (  0.0000000  0.0000000 -1.0000000 )
                  (  1.0000000  0.0000000  0.0000000 )
                  (  0.0000000 -1.0000000  0.0000000 )


      isym = 25     inversion                                    

 cryst.   s(25) = (    -1          0          0      )    f =(  0.2500000 )
                  (     0         -1          0      )       (  0.2500000 )
                  (     0          0         -1      )       (  0.2500000 )

 cart.    s(25) = ( -1.0000000  0.0000000  0.0000000 )    f =( -0.2500000 )
                  (  0.0000000 -1.0000000  0.0000000 )       (  0.2500000 )
                  (  0.0000000  0.0000000 -1.0000000 )       (  0.2500000 )


      isym = 26     inv. 180 deg rotation - cart. axis [0,0,1]   

 cryst.   s(26) = (     0         -1          1      )    f =(  0.2500000 )
                  (    -1          0          1      )       (  0.2500000 )
                  (     0          0          1      )       (  0.2500000 )

 cart.    s(26) = (  1.0000000  0.0000000  0.0000000 )    f =( -0.2500000 )
                  (  0.0000000  1.0000000  0.0000000 )       (  0.2500000 )
                  (  0.0000000  0.0000000 -1.0000000 )       (  0.2500000 )


      isym = 27     inv. 180 deg rotation - cart. axis [0,1,0]   

 cryst.   s(27) = (     1          0          0      )    f =(  0.2500000 )
                  (     1          0         -1      )       (  0.2500000 )
                  (     1         -1          0      )       (  0.2500000 )

 cart.    s(27) = (  1.0000000  0.0000000  0.0000000 )    f =( -0.2500000 )
                  (  0.0000000 -1.0000000  0.0000000 )       (  0.2500000 )
                  (  0.0000000  0.0000000  1.0000000 )       (  0.2500000 )


      isym = 28     inv. 180 deg rotation - cart. axis [1,0,0]   

 cryst.   s(28) = (     0          1         -1      )    f =(  0.2500000 )
                  (     0          1          0      )       (  0.2500000 )
                  (    -1          1          0      )       (  0.2500000 )

 cart.    s(28) = ( -1.0000000  0.0000000  0.0000000 )    f =( -0.2500000 )
                  (  0.0000000  1.0000000  0.0000000 )       (  0.2500000 )
                  (  0.0000000  0.0000000  1.0000000 )       (  0.2500000 )


      isym = 29     inv. 180 deg rotation - cart. axis [1,1,0]   

 cryst.   s(29) = (     0          1          0      )
                  (     1          0          0      )
                  (     0          0          1      )

 cart.    s(29) = (  0.0000000 -1.0000000  0.0000000 )
                  ( -1.0000000  0.0000000  0.0000000 )
                  (  0.0000000  0.0000000  1.0000000 )


      isym = 30     inv. 180 deg rotation - cart. axis [1,-1,0]  

 cryst.   s(30) = (     1          0         -1      )
                  (     0          1         -1      )
                  (     0          0         -1      )

 cart.    s(30) = (  0.0000000  1.0000000  0.0000000 )
                  (  1.0000000  0.0000000  0.0000000 )
                  (  0.0000000  0.0000000  1.0000000 )


      isym = 31     inv.  90 deg rotation - cart. axis [0,0,-1]  

 cryst.   s(31) = (     0         -1          0      )
                  (     0         -1          1      )
                  (     1         -1          0      )

 cart.    s(31) = (  0.0000000 -1.0000000  0.0000000 )
                  (  1.0000000  0.0000000  0.0000000 )
                  (  0.0000000  0.0000000 -1.0000000 )


      isym = 32     inv.  90 deg rotation - cart. axis [0,0,1]   

 cryst.   s(32) = (    -1          0          1      )
                  (    -1          0          0      )
                  (    -1          1          0      )

 cart.    s(32) = (  0.0000000  1.0000000  0.0000000 )
                  ( -1.0000000  0.0000000  0.0000000 )
                  (  0.0000000  0.0000000 -1.0000000 )


      isym = 33     inv. 180 deg rotation - cart. axis [1,0,1]   

 cryst.   s(33) = (     1          0          0      )
                  (     0          0          1      )
                  (     0          1          0      )

 cart.    s(33) = (  0.0000000  0.0000000 -1.0000000 )
                  (  0.0000000  1.0000000  0.0000000 )
                  ( -1.0000000  0.0000000  0.0000000 )


      isym = 34     inv. 180 deg rotation - cart. axis [-1,0,1]  

 cryst.   s(34) = (    -1          0          0      )
                  (    -1          1          0      )
                  (    -1          0          1      )

 cart.    s(34) = (  0.0000000  0.0000000  1.0000000 )
                  (  0.0000000  1.0000000  0.0000000 )
                  (  1.0000000  0.0000000  0.0000000 )


      isym = 35     inv.  90 deg rotation - cart. axis [0,1,0]   

 cryst.   s(35) = (     0         -1          1      )
                  (     1         -1          0      )
                  (     0         -1          0      )

 cart.    s(35) = (  0.0000000  0.0000000 -1.0000000 )
                  (  0.0000000 -1.0000000  0.0000000 )
                  (  1.0000000  0.0000000  0.0000000 )


      isym = 36     inv.  90 deg rotation - cart. axis [0,-1,0]  

 cryst.   s(36) = (     0          1         -1      )
                  (     0          0         -1      )
                  (     1          0         -1      )

 cart.    s(36) = (  0.0000000  0.0000000  1.0000000 )
                  (  0.0000000 -1.0000000  0.0000000 )
                  ( -1.0000000  0.0000000  0.0000000 )


      isym = 37     inv. 180 deg rotation - cart. axis [0,1,1]   

 cryst.   s(37) = (     1         -1          0      )
                  (     0         -1          0      )
                  (     0         -1          1      )

 cart.    s(37) = (  1.0000000  0.0000000  0.0000000 )
                  (  0.0000000  0.0000000 -1.0000000 )
                  (  0.0000000 -1.0000000  0.0000000 )


      isym = 38     inv. 180 deg rotation - cart. axis [0,1,-1]  

 cryst.   s(38) = (     0          0          1      )
                  (     0          1          0      )
                  (     1          0          0      )

 cart.    s(38) = (  1.0000000  0.0000000  0.0000000 )
                  (  0.0000000  0.0000000  1.0000000 )
                  (  0.0000000  1.0000000  0.0000000 )


      isym = 39     inv.  90 deg rotation - cart. axis [-1,0,0]  

 cryst.   s(39) = (     0          0         -1      )
                  (     1          0         -1      )
                  (     0          1         -1      )

 cart.    s(39) = ( -1.0000000  0.0000000  0.0000000 )
                  (  0.0000000  0.0000000 -1.0000000 )
                  (  0.0000000  1.0000000  0.0000000 )


      isym = 40     inv.  90 deg rotation - cart. axis [1,0,0]   

 cryst.   s(40) = (    -1          1          0      )
                  (    -1          0          1      )
                  (    -1          0          0      )

 cart.    s(40) = ( -1.0000000  0.0000000  0.0000000 )
                  (  0.0000000  0.0000000  1.0000000 )
                  (  0.0000000 -1.0000000  0.0000000 )


      isym = 41     inv. 120 deg rotation - cart. axis [-1,-1,-1]

 cryst.   s(41) = (     1          0         -1      )    f =(  0.2500000 )
                  (     1         -1          0      )       (  0.2500000 )
                  (     1          0          0      )       (  0.2500000 )

 cart.    s(41) = (  0.0000000 -1.0000000  0.0000000 )    f =( -0.2500000 )
                  (  0.0000000  0.0000000 -1.0000000 )       (  0.2500000 )
                  ( -1.0000000  0.0000000  0.0000000 )       (  0.2500000 )


      isym = 42     inv. 120 deg rotation - cart. axis [-1,1,1]  

 cryst.   s(42) = (     0         -1          0      )    f =(  0.2500000 )
                  (     0          0         -1      )       (  0.2500000 )
                  (    -1          0          0      )       (  0.2500000 )

 cart.    s(42) = (  0.0000000  1.0000000  0.0000000 )    f =( -0.2500000 )
                  (  0.0000000  0.0000000 -1.0000000 )       (  0.2500000 )
                  (  1.0000000  0.0000000  0.0000000 )       (  0.2500000 )


      isym = 43     inv. 120 deg rotation - cart. axis [1,1,-1]  

 cryst.   s(43) = (    -1          0          1      )    f =(  0.2500000 )
                  (     0          0          1      )       (  0.2500000 )
                  (     0         -1          1      )       (  0.2500000 )

 cart.    s(43) = (  0.0000000 -1.0000000  0.0000000 )    f =( -0.2500000 )
                  (  0.0000000  0.0000000  1.0000000 )       (  0.2500000 )
                  (  1.0000000  0.0000000  0.0000000 )       (  0.2500000 )


      isym = 44     inv. 120 deg rotation - cart. axis [1,-1,1]  

 cryst.   s(44) = (     0          1          0      )    f =(  0.2500000 )
                  (    -1          1          0      )       (  0.2500000 )
                  (     0          1         -1      )       (  0.2500000 )

 cart.    s(44) = (  0.0000000  1.0000000  0.0000000 )    f =( -0.2500000 )
                  (  0.0000000  0.0000000  1.0000000 )       (  0.2500000 )
                  ( -1.0000000  0.0000000  0.0000000 )       (  0.2500000 )


      isym = 45     inv. 120 deg rotation - cart. axis [1,1,1]   

 cryst.   s(45) = (     0          0          1      )    f =(  0.2500000 )
                  (     0         -1          1      )       (  0.2500000 )
                  (    -1          0          1      )       (  0.2500000 )

 cart.    s(45) = (  0.0000000  0.0000000 -1.0000000 )    f =( -0.2500000 )
                  ( -1.0000000  0.0000000  0.0000000 )       (  0.2500000 )
                  (  0.0000000 -1.0000000  0.0000000 )       (  0.2500000 )


      isym = 46     inv. 120 deg rotation - cart. axis [-1,1,-1] 

 cryst.   s(46) = (     1         -1          0      )    f =(  0.2500000 )
                  (     1          0          0      )       (  0.2500000 )
                  (     1          0         -1      )       (  0.2500000 )

 cart.    s(46) = (  0.0000000  0.0000000 -1.0000000 )    f =( -0.2500000 )
                  (  1.0000000  0.0000000  0.0000000 )       (  0.2500000 )
                  (  0.0000000  1.0000000  0.0000000 )       (  0.2500000 )


      isym = 47     inv. 120 deg rotation - cart. axis [1,-1,-1] 

 cryst.   s(47) = (     0          0         -1      )    f =(  0.2500000 )
                  (    -1          0          0      )       (  0.2500000 )
                  (     0         -1          0      )       (  0.2500000 )

 cart.    s(47) = (  0.0000000  0.0000000  1.0000000 )    f =( -0.2500000 )
                  (  1.0000000  0.0000000  0.0000000 )       (  0.2500000 )
                  (  0.0000000 -1.0000000  0.0000000 )       (  0.2500000 )


      isym = 48     inv. 120 deg rotation - cart. axis [-1,-1,1] 

 cryst.   s(48) = (    -1          1          0      )    f =(  0.2500000 )
                  (     0          1         -1      )       (  0.2500000 )
                  (     0          1          0      )       (  0.2500000 )

 cart.    s(48) = (  0.0000000  0.0000000  1.0000000 )    f =( -0.2500000 )
                  ( -1.0000000  0.0000000  0.0000000 )       (  0.2500000 )
                  (  0.0000000  1.0000000  0.0000000 )       (  0.2500000 )


     double point group O_h (m-3m) 
     there are 16 classes and  6 irreducible representations
     the character table:

       E     -E    8C3   -8C3   3C2  6C4   -6C4   6C2' i     -i    8S6   -8S6 
                               -3C2              -6C2'                        
G_6+   2.00 -2.00  1.00 -1.00  0.00  1.41 -1.41  0.00  2.00 -2.00  1.00 -1.00
G_7+   2.00 -2.00  1.00 -1.00  0.00 -1.41  1.41  0.00  2.00 -2.00  1.00 -1.00
G_8+   4.00 -4.00 -1.00  1.00  0.00  0.00  0.00  0.00  4.00 -4.00 -1.00  1.00
G_6-   2.00 -2.00  1.00 -1.00  0.00  1.41 -1.41  0.00 -2.00  2.00 -1.00  1.00
G_7-   2.00 -2.00  1.00 -1.00  0.00 -1.41  1.41  0.00 -2.00  2.00 -1.00  1.00
G_8-   4.00 -4.00 -1.00  1.00  0.00  0.00  0.00  0.00 -4.00  4.00  1.00 -1.00

        3s_h 6S4   -6S4   6s_d
       -3s_h             -6s_d
G_6+   0.00  1.41 -1.41  0.00
G_7+   0.00 -1.41  1.41  0.00
G_8+   0.00  0.00  0.00  0.00
G_6-   0.00 -1.41  1.41  0.00
G_7-   0.00  1.41 -1.41  0.00
G_8-   0.00  0.00  0.00  0.00

     the symmetry operations in each class and the name of the first element:

     E             1
          identity                                               
     -E           -1
          identity E                                             
     8C3          17   19   20   18   24   21   22   23
          120 deg rotation - cart. axis [-1,-1,-1]               
     -8C3        -17  -19  -20  -18  -24  -21  -22  -23
          120 deg rotation - cart. axis [-1,-1,-1] E             
      3C2 -3C2     2   -2    4   -4    3   -3
          180 deg rotation - cart. axis [0,0,1]                  
     6C4           7    8   15   16   12   11
           90 deg rotation - cart. axis [0,0,-1]                 
     -6C4         -7   -8  -15  -16  -12  -11
           90 deg rotation - cart. axis [0,0,-1] E               
      6C2'-6C2'    5   -5   -6    6   14  -13  -14   13   10   -9  -10    9
          180 deg rotation - cart. axis [1,1,0]                  
     i            25
          inversion                                              
     -i          -25
          inversion E                                            
     8S6          41   43   44   42   48   45   46   47
          inv. 120 deg rotation - cart. axis [-1,-1,-1]          
     -8S6        -41  -43  -44  -42  -48  -45  -46  -47
          inv. 120 deg rotation - cart. axis [-1,-1,-1] E        
      3s_h-3s_h   26  -26   28  -28   27  -27
          inv. 180 deg rotation - cart. axis [0,0,1]             
     6S4          31   32   39   40   36   35
          inv.  90 deg rotation - cart. axis [0,0,-1]            
     -6S4        -31  -32  -39  -40  -36  -35
          inv.  90 deg rotation - cart. axis [0,0,-1] E          
      6s_d-6s_d   29  -29  -30   30   38  -37  -38   37   34  -33  -34   33
          inv. 180 deg rotation - cart. axis [1,1,0]             

   Cartesian axes

     site n.     atom                  positions (alat units)
         1           Si  tau(   1) = (   0.0000000   0.0000000   0.0000000  )
         2           Si  tau(   2) = (   0.2500000   0.2500000   0.2500000  )

   Crystallographic axes

     site n.     atom                  positions (cryst. coord.)
         1           Si  tau(   1) = (  0.0000000  0.0000000  0.0000000  )
         2           Si  tau(   2) = ( -0.2500000  0.7500000 -0.2500000  )

     number of k points=   216
                       cart. coord. in units 2pi/alat
        k(    1) = (   0.0000000   0.0000000   0.0000000), wk =   0.0046296
        k(    2) = (  -0.1666667   0.1666667  -0.1666667), wk =   0.0046296
        k(    3) = (  -0.3333333   0.3333333  -0.3333333), wk =   0.0046296
        k(    4) = (  -0.5000000   0.5000000  -0.5000000), wk =   0.0046296
        k(    5) = (  -0.6666667   0.6666667  -0.6666667), wk =   0.0046296
        k(    6) = (  -0.8333333   0.8333333  -0.8333333), wk =   0.0046296
        k(    7) = (   0.1666667   0.1666667   0.1666667), wk =   0.0046296
        k(    8) = (   0.0000000   0.3333333   0.0000000), wk =   0.0046296
        k(    9) = (  -0.1666667   0.5000000  -0.1666667), wk =   0.0046296
        k(   10) = (  -0.3333333   0.6666667  -0.3333333), wk =   0.0046296
        k(   11) = (  -0.5000000   0.8333333  -0.5000000), wk =   0.0046296
        k(   12) = (  -0.6666667   1.0000000  -0.6666667), wk =   0.0046296
        k(   13) = (   0.3333333   0.3333333   0.3333333), wk =   0.0046296
        k(   14) = (   0.1666667   0.5000000   0.1666667), wk =   0.0046296
        k(   15) = (   0.0000000   0.6666667   0.0000000), wk =   0.0046296
        k(   16) = (  -0.1666667   0.8333333  -0.1666667), wk =   0.0046296
        k(   17) = (  -0.3333333   1.0000000  -0.3333333), wk =   0.0046296
        k(   18) = (  -0.5000000   1.1666667  -0.5000000), wk =   0.0046296
        k(   19) = (   0.5000000   0.5000000   0.5000000), wk =   0.0046296
        k(   20) = (   0.3333333   0.6666667   0.3333333), wk =   0.0046296
        k(   21) = (   0.1666667   0.8333333   0.1666667), wk =   0.0046296
        k(   22) = (   0.0000000   1.0000000   0.0000000), wk =   0.0046296
        k(   23) = (  -0.1666667   1.1666667  -0.1666667), wk =   0.0046296
        k(   24) = (  -0.3333333   1.3333333  -0.3333333), wk =   0.0046296
        k(   25) = (   0.6666667   0.6666667   0.6666667), wk =   0.0046296
        k(   26) = (   0.5000000   0.8333333   0.5000000), wk =   0.0046296
        k(   27) = (   0.3333333   1.0000000   0.3333333), wk =   0.0046296
        k(   28) = (   0.1666667   1.1666667   0.1666667), wk =   0.0046296
        k(   29) = (   0.0000000   1.3333333   0.0000000), wk =   0.0046296
        k(   30) = (  -0.1666667   1.5000000  -0.1666667), wk =   0.0046296
        k(   31) = (   0.8333333   0.8333333   0.8333333), wk =   0.0046296
        k(   32) = (   0.6666667   1.0000000   0.6666667), wk =   0.0046296
        k(   33) = (   0.5000000   1.1666667   0.5000000), wk =   0.0046296
        k(   34) = (   0.3333333   1.3333333   0.3333333), wk =   0.0046296
        k(   35) = (   0.1666667   1.5000000   0.1666667), wk =   0.0046296
        k(   36) = (   0.0000000   1.6666667   0.0000000), wk =   0.0046296
        k(   37) = (  -0.1666667  -0.1666667   0.1666667), wk =   0.0046296
        k(   38) = (  -0.3333333   0.0000000   0.0000000), wk =   0.0046296
        k(   39) = (  -0.5000000   0.1666667  -0.1666667), wk =   0.0046296
        k(   40) = (  -0.6666667   0.3333333  -0.3333333), wk =   0.0046296
        k(   41) = (  -0.8333333   0.5000000  -0.5000000), wk =   0.0046296
        k(   42) = (  -1.0000000   0.6666667  -0.6666667), wk =   0.0046296
        k(   43) = (   0.0000000   0.0000000   0.3333333), wk =   0.0046296
        k(   44) = (  -0.1666667   0.1666667   0.1666667), wk =   0.0046296
        k(   45) = (  -0.3333333   0.3333333   0.0000000), wk =   0.0046296
        k(   46) = (  -0.5000000   0.5000000  -0.1666667), wk =   0.0046296
        k(   47) = (  -0.6666667   0.6666667  -0.3333333), wk =   0.0046296
        k(   48) = (  -0.8333333   0.8333333  -0.5000000), wk =   0.0046296
        k(   49) = (   0.1666667   0.1666667   0.5000000), wk =   0.0046296
        k(   50) = (  -0.0000000   0.3333333   0.3333333), wk =   0.0046296
        k(   51) = (  -0.1666667   0.5000000   0.1666667), wk =   0.0046296
        k(   52) = (  -0.3333333   0.6666667   0.0000000), wk =   0.0046296
        k(   53) = (  -0.5000000   0.8333333  -0.1666667), wk =   0.0046296
        k(   54) = (  -0.6666667   1.0000000  -0.3333333), wk =   0.0046296
        k(   55) = (   0.3333333   0.3333333   0.6666667), wk =   0.0046296
        k(   56) = (   0.1666667   0.5000000   0.5000000), wk =   0.0046296
        k(   57) = (   0.0000000   0.6666667   0.3333333), wk =   0.0046296
        k(   58) = (  -0.1666667   0.8333333   0.1666667), wk =   0.0046296
        k(   59) = (  -0.3333333   1.0000000   0.0000000), wk =   0.0046296
        k(   60) = (  -0.5000000   1.1666667  -0.1666667), wk =   0.0046296
        k(   61) = (   0.5000000   0.5000000   0.8333333), wk =   0.0046296
        k(   62) = (   0.3333333   0.6666667   0.6666667), wk =   0.0046296
        k(   63) = (   0.1666667   0.8333333   0.5000000), wk =   0.0046296
        k(   64) = (   0.0000000   1.0000000   0.3333333), wk =   0.0046296
        k(   65) = (  -0.1666667   1.1666667   0.1666667), wk =   0.0046296
        k(   66) = (  -0.3333333   1.3333333   0.0000000), wk =   0.0046296
        k(   67) = (   0.6666667   0.6666667   1.0000000), wk =   0.0046296
        k(   68) = (   0.5000000   0.8333333   0.8333333), wk =   0.0046296
        k(   69) = (   0.3333333   1.0000000   0.6666667), wk =   0.0046296
        k(   70) = (   0.1666667   1.1666667   0.5000000), wk =   0.0046296
        k(   71) = (  -0.0000000   1.3333333   0.3333333), wk =   0.0046296
        k(   72) = (  -0.1666667   1.5000000   0.1666667), wk =   0.0046296
        k(   73) = (  -0.3333333  -0.3333333   0.3333333), wk =   0.0046296
        k(   74) = (  -0.5000000  -0.1666667   0.1666667), wk =   0.0046296
        k(   75) = (  -0.6666667   0.0000000   0.0000000), wk =   0.0046296
        k(   76) = (  -0.8333333   0.1666667  -0.1666667), wk =   0.0046296
        k(   77) = (  -1.0000000   0.3333333  -0.3333333), wk =   0.0046296
        k(   78) = (  -1.1666667   0.5000000  -0.5000000), wk =   0.0046296
        k(   79) = (  -0.1666667  -0.1666667   0.5000000), wk =   0.0046296
        k(   80) = (  -0.3333333   0.0000000   0.3333333), wk =   0.0046296
        k(   81) = (  -0.5000000   0.1666667   0.1666667), wk =   0.0046296
        k(   82) = (  -0.6666667   0.3333333   0.0000000), wk =   0.0046296
        k(   83) = (  -0.8333333   0.5000000  -0.1666667), wk =   0.0046296
        k(   84) = (  -1.0000000   0.6666667  -0.3333333), wk =   0.0046296
        k(   85) = (   0.0000000   0.0000000   0.6666667), wk =   0.0046296
        k(   86) = (  -0.1666667   0.1666667   0.5000000), wk =   0.0046296
        k(   87) = (  -0.3333333   0.3333333   0.3333333), wk =   0.0046296
        k(   88) = (  -0.5000000   0.5000000   0.1666667), wk =   0.0046296
        k(   89) = (  -0.6666667   0.6666667  -0.0000000), wk =   0.0046296
        k(   90) = (  -0.8333333   0.8333333  -0.1666667), wk =   0.0046296
        k(   91) = (   0.1666667   0.1666667   0.8333333), wk =   0.0046296
        k(   92) = (   0.0000000   0.3333333   0.6666667), wk =   0.0046296
        k(   93) = (  -0.1666667   0.5000000   0.5000000), wk =   0.0046296
        k(   94) = (  -0.3333333   0.6666667   0.3333333), wk =   0.0046296
        k(   95) = (  -0.5000000   0.8333333   0.1666667), wk =   0.0046296
        k(   96) = (  -0.6666667   1.0000000   0.0000000), wk =   0.0046296
        k(   97) = (   0.3333333   0.3333333   1.0000000), wk =   0.0046296
        k(   98) = (   0.1666667   0.5000000   0.8333333), wk =   0.0046296
        k(   99) = (   0.0000000   0.6666667   0.6666667), wk =   0.0046296
        k(  100) = (  -0.1666667   0.8333333   0.5000000), wk =   0.0046296
        k(  101) = (  -0.3333333   1.0000000   0.3333333), wk =   0.0046296
        k(  102) = (  -0.5000000   1.1666667   0.1666667), wk =   0.0046296
        k(  103) = (   0.5000000   0.5000000   1.1666667), wk =   0.0046296
        k(  104) = (   0.3333333   0.6666667   1.0000000), wk =   0.0046296
        k(  105) = (   0.1666667   0.8333333   0.8333333), wk =   0.0046296
        k(  106) = (   0.0000000   1.0000000   0.6666667), wk =   0.0046296
        k(  107) = (  -0.1666667   1.1666667   0.5000000), wk =   0.0046296
        k(  108) = (  -0.3333333   1.3333333   0.3333333), wk =   0.0046296
        k(  109) = (  -0.5000000  -0.5000000   0.5000000), wk =   0.0046296
        k(  110) = (  -0.6666667  -0.3333333   0.3333333), wk =   0.0046296
        k(  111) = (  -0.8333333  -0.1666667   0.1666667), wk =   0.0046296
        k(  112) = (  -1.0000000   0.0000000   0.0000000), wk =   0.0046296
        k(  113) = (  -1.1666667   0.1666667  -0.1666667), wk =   0.0046296
        k(  114) = (  -1.3333333   0.3333333  -0.3333333), wk =   0.0046296
        k(  115) = (  -0.3333333  -0.3333333   0.6666667), wk =   0.0046296
        k(  116) = (  -0.5000000  -0.1666667   0.5000000), wk =   0.0046296
        k(  117) = (  -0.6666667   0.0000000   0.3333333), wk =   0.0046296
        k(  118) = (  -0.8333333   0.1666667   0.1666667), wk =   0.0046296
        k(  119) = (  -1.0000000   0.3333333   0.0000000), wk =   0.0046296
        k(  120) = (  -1.1666667   0.5000000  -0.1666667), wk =   0.0046296
        k(  121) = (  -0.1666667  -0.1666667   0.8333333), wk =   0.0046296
        k(  122) = (  -0.3333333  -0.0000000   0.6666667), wk =   0.0046296
        k(  123) = (  -0.5000000   0.1666667   0.5000000), wk =   0.0046296
        k(  124) = (  -0.6666667   0.3333333   0.3333333), wk =   0.0046296
        k(  125) = (  -0.8333333   0.5000000   0.1666667), wk =   0.0046296
        k(  126) = (  -1.0000000   0.6666667   0.0000000), wk =   0.0046296
        k(  127) = (   0.0000000   0.0000000   1.0000000), wk =   0.0046296
        k(  128) = (  -0.1666667   0.1666667   0.8333333), wk =   0.0046296
        k(  129) = (  -0.3333333   0.3333333   0.6666667), wk =   0.0046296
        k(  130) = (  -0.5000000   0.5000000   0.5000000), wk =   0.0046296
        k(  131) = (  -0.6666667   0.6666667   0.3333333), wk =   0.0046296
        k(  132) = (  -0.8333333   0.8333333   0.1666667), wk =   0.0046296
        k(  133) = (   0.1666667   0.1666667   1.1666667), wk =   0.0046296
        k(  134) = (   0.0000000   0.3333333   1.0000000), wk =   0.0046296
        k(  135) = (  -0.1666667   0.5000000   0.8333333), wk =   0.0046296
        k(  136) = (  -0.3333333   0.6666667   0.6666667), wk =   0.0046296
        k(  137) = (  -0.5000000   0.8333333   0.5000000), wk =   0.0046296
        k(  138) = (  -0.6666667   1.0000000   0.3333333), wk =   0.0046296
        k(  139) = (   0.3333333   0.3333333   1.3333333), wk =   0.0046296
        k(  140) = (   0.1666667   0.5000000   1.1666667), wk =   0.0046296
        k(  141) = (   0.0000000   0.6666667   1.0000000), wk =   0.0046296
        k(  142) = (  -0.1666667   0.8333333   0.8333333), wk =   0.0046296
        k(  143) = (  -0.3333333   1.0000000   0.6666667), wk =   0.0046296
        k(  144) = (  -0.5000000   1.1666667   0.5000000), wk =   0.0046296
        k(  145) = (  -0.6666667  -0.6666667   0.6666667), wk =   0.0046296
        k(  146) = (  -0.8333333  -0.5000000   0.5000000), wk =   0.0046296
        k(  147) = (  -1.0000000  -0.3333333   0.3333333), wk =   0.0046296
        k(  148) = (  -1.1666667  -0.1666667   0.1666667), wk =   0.0046296
        k(  149) = (  -1.3333333   0.0000000   0.0000000), wk =   0.0046296
        k(  150) = (  -1.5000000   0.1666667  -0.1666667), wk =   0.0046296
        k(  151) = (  -0.5000000  -0.5000000   0.8333333), wk =   0.0046296
        k(  152) = (  -0.6666667  -0.3333333   0.6666667), wk =   0.0046296
        k(  153) = (  -0.8333333  -0.1666667   0.5000000), wk =   0.0046296
        k(  154) = (  -1.0000000   0.0000000   0.3333333), wk =   0.0046296
        k(  155) = (  -1.1666667   0.1666667   0.1666667), wk =   0.0046296
        k(  156) = (  -1.3333333   0.3333333   0.0000000), wk =   0.0046296
        k(  157) = (  -0.3333333  -0.3333333   1.0000000), wk =   0.0046296
        k(  158) = (  -0.5000000  -0.1666667   0.8333333), wk =   0.0046296
        k(  159) = (  -0.6666667  -0.0000000   0.6666667), wk =   0.0046296
        k(  160) = (  -0.8333333   0.1666667   0.5000000), wk =   0.0046296
        k(  161) = (  -1.0000000   0.3333333   0.3333333), wk =   0.0046296
        k(  162) = (  -1.1666667   0.5000000   0.1666667), wk =   0.0046296
        k(  163) = (  -0.1666667  -0.1666667   1.1666667), wk =   0.0046296
        k(  164) = (  -0.3333333  -0.0000000   1.0000000), wk =   0.0046296
        k(  165) = (  -0.5000000   0.1666667   0.8333333), wk =   0.0046296
        k(  166) = (  -0.6666667   0.3333333   0.6666667), wk =   0.0046296
        k(  167) = (  -0.8333333   0.5000000   0.5000000), wk =   0.0046296
        k(  168) = (  -1.0000000   0.6666667   0.3333333), wk =   0.0046296
        k(  169) = (   0.0000000   0.0000000   1.3333333), wk =   0.0046296
        k(  170) = (  -0.1666667   0.1666667   1.1666667), wk =   0.0046296
        k(  171) = (  -0.3333333   0.3333333   1.0000000), wk =   0.0046296
        k(  172) = (  -0.5000000   0.5000000   0.8333333), wk =   0.0046296
        k(  173) = (  -0.6666667   0.6666667   0.6666667), wk =   0.0046296
        k(  174) = (  -0.8333333   0.8333333   0.5000000), wk =   0.0046296
        k(  175) = (   0.1666667   0.1666667   1.5000000), wk =   0.0046296
        k(  176) = (  -0.0000000   0.3333333   1.3333333), wk =   0.0046296
        k(  177) = (  -0.1666667   0.5000000   1.1666667), wk =   0.0046296
        k(  178) = (  -0.3333333   0.6666667   1.0000000), wk =   0.0046296
        k(  179) = (  -0.5000000   0.8333333   0.8333333), wk =   0.0046296
        k(  180) = (  -0.6666667   1.0000000   0.6666667), wk =   0.0046296
        k(  181) = (  -0.8333333  -0.8333333   0.8333333), wk =   0.0046296
        k(  182) = (  -1.0000000  -0.6666667   0.6666667), wk =   0.0046296
        k(  183) = (  -1.1666667  -0.5000000   0.5000000), wk =   0.0046296
        k(  184) = (  -1.3333333  -0.3333333   0.3333333), wk =   0.0046296
        k(  185) = (  -1.5000000  -0.1666667   0.1666667), wk =   0.0046296
        k(  186) = (  -1.6666667   0.0000000   0.0000000), wk =   0.0046296
        k(  187) = (  -0.6666667  -0.6666667   1.0000000), wk =   0.0046296
        k(  188) = (  -0.8333333  -0.5000000   0.8333333), wk =   0.0046296
        k(  189) = (  -1.0000000  -0.3333333   0.6666667), wk =   0.0046296
        k(  190) = (  -1.1666667  -0.1666667   0.5000000), wk =   0.0046296
        k(  191) = (  -1.3333333   0.0000000   0.3333333), wk =   0.0046296
        k(  192) = (  -1.5000000   0.1666667   0.1666667), wk =   0.0046296
        k(  193) = (  -0.5000000  -0.5000000   1.1666667), wk =   0.0046296
        k(  194) = (  -0.6666667  -0.3333333   1.0000000), wk =   0.0046296
        k(  195) = (  -0.8333333  -0.1666667   0.8333333), wk =   0.0046296
        k(  196) = (  -1.0000000   0.0000000   0.6666667), wk =   0.0046296
        k(  197) = (  -1.1666667   0.1666667   0.5000000), wk =   0.0046296
        k(  198) = (  -1.3333333   0.3333333   0.3333333), wk =   0.0046296
        k(  199) = (  -0.3333333  -0.3333333   1.3333333), wk =   0.0046296
        k(  200) = (  -0.5000000  -0.1666667   1.1666667), wk =   0.0046296
        k(  201) = (  -0.6666667   0.0000000   1.0000000), wk =   0.0046296
        k(  202) = (  -0.8333333   0.1666667   0.8333333), wk =   0.0046296
        k(  203) = (  -1.0000000   0.3333333   0.6666667), wk =   0.0046296
        k(  204) = (  -1.1666667   0.5000000   0.5000000), wk =   0.0046296
        k(  205) = (  -0.1666667  -0.1666667   1.5000000), wk =   0.0046296
        k(  206) = (  -0.3333333   0.0000000   1.3333333), wk =   0.0046296
        k(  207) = (  -0.5000000   0.1666667   1.1666667), wk =   0.0046296
        k(  208) = (  -0.6666667   0.3333333   1.0000000), wk =   0.0046296
        k(  209) = (  -0.8333333   0.5000000   0.8333333), wk =   0.0046296
        k(  210) = (  -1.0000000   0.6666667   0.6666667), wk =   0.0046296
        k(  211) = (   0.0000000   0.0000000   1.6666667), wk =   0.0046296
        k(  212) = (  -0.1666667   0.1666667   1.5000000), wk =   0.0046296
        k(  213) = (  -0.3333333   0.3333333   1.3333333), wk =   0.0046296
        k(  214) = (  -0.5000000   0.5000000   1.1666667), wk =   0.0046296
        k(  215) = (  -0.6666667   0.6666667   1.0000000), wk =   0.0046296
        k(  216) = (  -0.8333333   0.8333333   0.8333333), wk =   0.0046296

                       cryst. coord.
        k(    1) = (   0.0000000   0.0000000   0.0000000), wk =   0.0046296
        k(    2) = (   0.0000000   0.0000000   0.1666667), wk =   0.0046296
        k(    3) = (   0.0000000   0.0000000   0.3333333), wk =   0.0046296
        k(    4) = (   0.0000000   0.0000000   0.5000000), wk =   0.0046296
        k(    5) = (   0.0000000   0.0000000   0.6666667), wk =   0.0046296
        k(    6) = (   0.0000000   0.0000000   0.8333333), wk =   0.0046296
        k(    7) = (   0.0000000   0.1666667   0.0000000), wk =   0.0046296
        k(    8) = (   0.0000000   0.1666667   0.1666667), wk =   0.0046296
        k(    9) = (   0.0000000   0.1666667   0.3333333), wk =   0.0046296
        k(   10) = (   0.0000000   0.1666667   0.5000000), wk =   0.0046296
        k(   11) = (   0.0000000   0.1666667   0.6666667), wk =   0.0046296
        k(   12) = (   0.0000000   0.1666667   0.8333333), wk =   0.0046296
        k(   13) = (   0.0000000   0.3333333   0.0000000), wk =   0.0046296
        k(   14) = (   0.0000000   0.3333333   0.1666667), wk =   0.0046296
        k(   15) = (   0.0000000   0.3333333   0.3333333), wk =   0.0046296
        k(   16) = (   0.0000000   0.3333333   0.5000000), wk =   0.0046296
        k(   17) = (   0.0000000   0.3333333   0.6666667), wk =   0.0046296
        k(   18) = (   0.0000000   0.3333333   0.8333333), wk =   0.0046296
        k(   19) = (   0.0000000   0.5000000   0.0000000), wk =   0.0046296
        k(   20) = (   0.0000000   0.5000000   0.1666667), wk =   0.0046296
        k(   21) = (   0.0000000   0.5000000   0.3333333), wk =   0.0046296
        k(   22) = (   0.0000000   0.5000000   0.5000000), wk =   0.0046296
        k(   23) = (   0.0000000   0.5000000   0.6666667), wk =   0.0046296
        k(   24) = (   0.0000000   0.5000000   0.8333333), wk =   0.0046296
        k(   25) = (   0.0000000   0.6666667   0.0000000), wk =   0.0046296
        k(   26) = (   0.0000000   0.6666667   0.1666667), wk =   0.0046296
        k(   27) = (   0.0000000   0.6666667   0.3333333), wk =   0.0046296
        k(   28) = (   0.0000000   0.6666667   0.5000000), wk =   0.0046296
        k(   29) = (   0.0000000   0.6666667   0.6666667), wk =   0.0046296
        k(   30) = (   0.0000000   0.6666667   0.8333333), wk =   0.0046296
        k(   31) = (   0.0000000   0.8333333   0.0000000), wk =   0.0046296
        k(   32) = (   0.0000000   0.8333333   0.1666667), wk =   0.0046296
        k(   33) = (   0.0000000   0.8333333   0.3333333), wk =   0.0046296
        k(   34) = (   0.0000000   0.8333333   0.5000000), wk =   0.0046296
        k(   35) = (   0.0000000   0.8333333   0.6666667), wk =   0.0046296
        k(   36) = (   0.0000000   0.8333333   0.8333333), wk =   0.0046296
        k(   37) = (   0.1666667   0.0000000   0.0000000), wk =   0.0046296
        k(   38) = (   0.1666667   0.0000000   0.1666667), wk =   0.0046296
        k(   39) = (   0.1666667   0.0000000   0.3333333), wk =   0.0046296
        k(   40) = (   0.1666667   0.0000000   0.5000000), wk =   0.0046296
        k(   41) = (   0.1666667   0.0000000   0.6666667), wk =   0.0046296
        k(   42) = (   0.1666667   0.0000000   0.8333333), wk =   0.0046296
        k(   43) = (   0.1666667   0.1666667   0.0000000), wk =   0.0046296
        k(   44) = (   0.1666667   0.1666667   0.1666667), wk =   0.0046296
        k(   45) = (   0.1666667   0.1666667   0.3333333), wk =   0.0046296
        k(   46) = (   0.1666667   0.1666667   0.5000000), wk =   0.0046296
        k(   47) = (   0.1666667   0.1666667   0.6666667), wk =   0.0046296
        k(   48) = (   0.1666667   0.1666667   0.8333333), wk =   0.0046296
        k(   49) = (   0.1666667   0.3333333   0.0000000), wk =   0.0046296
        k(   50) = (   0.1666667   0.3333333   0.1666667), wk =   0.0046296
        k(   51) = (   0.1666667   0.3333333   0.3333333), wk =   0.0046296
        k(   52) = (   0.1666667   0.3333333   0.5000000), wk =   0.0046296
        k(   53) = (   0.1666667   0.3333333   0.6666667), wk =   0.0046296
        k(   54) = (   0.1666667   0.3333333   0.8333333), wk =   0.0046296
        k(   55) = (   0.1666667   0.5000000   0.0000000), wk =   0.0046296
        k(   56) = (   0.1666667   0.5000000   0.1666667), wk =   0.0046296
        k(   57) = (   0.1666667   0.5000000   0.3333333), wk =   0.0046296
        k(   58) = (   0.1666667   0.5000000   0.5000000), wk =   0.0046296
        k(   59) = (   0.1666667   0.5000000   0.6666667), wk =   0.0046296
        k(   60) = (   0.1666667   0.5000000   0.8333333), wk =   0.0046296
        k(   61) = (   0.1666667   0.6666667   0.0000000), wk =   0.0046296
        k(   62) = (   0.1666667   0.6666667   0.1666667), wk =   0.0046296
        k(   63) = (   0.1666667   0.6666667   0.3333333), wk =   0.0046296
        k(   64) = (   0.1666667   0.6666667   0.5000000), wk =   0.0046296
        k(   65) = (   0.1666667   0.6666667   0.6666667), wk =   0.0046296
        k(   66) = (   0.1666667   0.6666667   0.8333333), wk =   0.0046296
        k(   67) = (   0.1666667   0.8333333   0.0000000), wk =   0.0046296
        k(   68) = (   0.1666667   0.8333333   0.1666667), wk =   0.0046296
        k(   69) = (   0.1666667   0.8333333   0.3333333), wk =   0.0046296
        k(   70) = (   0.1666667   0.8333333   0.5000000), wk =   0.0046296
        k(   71) = (   0.1666667   0.8333333   0.6666667), wk =   0.0046296
        k(   72) = (   0.1666667   0.8333333   0.8333333), wk =   0.0046296
        k(   73) = (   0.3333333   0.0000000   0.0000000), wk =   0.0046296
        k(   74) = (   0.3333333   0.0000000   0.1666667), wk =   0.0046296
        k(   75) = (   0.3333333   0.0000000   0.3333333), wk =   0.0046296
        k(   76) = (   0.3333333   0.0000000   0.5000000), wk =   0.0046296
        k(   77) = (   0.3333333   0.0000000   0.6666667), wk =   0.0046296
        k(   78) = (   0.3333333   0.0000000   0.8333333), wk =   0.0046296
        k(   79) = (   0.3333333   0.1666667   0.0000000), wk =   0.0046296
        k(   80) = (   0.3333333   0.1666667   0.1666667), wk =   0.0046296
        k(   81) = (   0.3333333   0.1666667   0.3333333), wk =   0.0046296
        k(   82) = (   0.3333333   0.1666667   0.5000000), wk =   0.0046296
        k(   83) = (   0.3333333   0.1666667   0.6666667), wk =   0.0046296
        k(   84) = (   0.3333333   0.1666667   0.8333333), wk =   0.0046296
        k(   85) = (   0.3333333   0.3333333   0.0000000), wk =   0.0046296
        k(   86) = (   0.3333333   0.3333333   0.1666667), wk =   0.0046296
        k(   87) = (   0.3333333   0.3333333   0.3333333), wk =   0.0046296
        k(   88) = (   0.3333333   0.3333333   0.5000000), wk =   0.0046296
        k(   89) = (   0.3333333   0.3333333   0.6666667), wk =   0.0046296
        k(   90) = (   0.3333333   0.3333333   0.8333333), wk =   0.0046296
        k(   91) = (   0.3333333   0.5000000   0.0000000), wk =   0.0046296
        k(   92) = (   0.3333333   0.5000000   0.1666667), wk =   0.0046296
        k(   93) = (   0.3333333   0.5000000   0.3333333), wk =   0.0046296
        k(   94) = (   0.3333333   0.5000000   0.5000000), wk =   0.0046296
        k(   95) = (   0.3333333   0.5000000   0.6666667), wk =   0.0046296
        k(   96) = (   0.3333333   0.5000000   0.8333333), wk =   0.0046296
        k(   97) = (   0.3333333   0.6666667   0.0000000), wk =   0.0046296
        k(   98) = (   0.3333333   0.6666667   0.1666667), wk =   0.0046296
        k(   99) = (   0.3333333   0.6666667   0.3333333), wk =   0.0046296
        k(  100) = (   0.3333333   0.6666667   0.5000000), wk =   0.0046296
        k(  101) = (   0.3333333   0.6666667   0.6666667), wk =   0.0046296
        k(  102) = (   0.3333333   0.6666667   0.8333333), wk =   0.0046296
        k(  103) = (   0.3333333   0.8333333   0.0000000), wk =   0.0046296
        k(  104) = (   0.3333333   0.8333333   0.1666667), wk =   0.0046296
        k(  105) = (   0.3333333   0.8333333   0.3333333), wk =   0.0046296
        k(  106) = (   0.3333333   0.8333333   0.5000000), wk =   0.0046296
        k(  107) = (   0.3333333   0.8333333   0.6666667), wk =   0.0046296
        k(  108) = (   0.3333333   0.8333333   0.8333333), wk =   0.0046296
        k(  109) = (   0.5000000   0.0000000   0.0000000), wk =   0.0046296
        k(  110) = (   0.5000000   0.0000000   0.1666667), wk =   0.0046296
        k(  111) = (   0.5000000   0.0000000   0.3333333), wk =   0.0046296
        k(  112) = (   0.5000000   0.0000000   0.5000000), wk =   0.0046296
        k(  113) = (   0.5000000   0.0000000   0.6666667), wk =   0.0046296
        k(  114) = (   0.5000000   0.0000000   0.8333333), wk =   0.0046296
        k(  115) = (   0.5000000   0.1666667   0.0000000), wk =   0.0046296
        k(  116) = (   0.5000000   0.1666667   0.1666667), wk =   0.0046296
        k(  117) = (   0.5000000   0.1666667   0.3333333), wk =   0.0046296
        k(  118) = (   0.5000000   0.1666667   0.5000000), wk =   0.0046296
        k(  119) = (   0.5000000   0.1666667   0.6666667), wk =   0.0046296
        k(  120) = (   0.5000000   0.1666667   0.8333333), wk =   0.0046296
        k(  121) = (   0.5000000   0.3333333   0.0000000), wk =   0.0046296
        k(  122) = (   0.5000000   0.3333333   0.1666667), wk =   0.0046296
        k(  123) = (   0.5000000   0.3333333   0.3333333), wk =   0.0046296
        k(  124) = (   0.5000000   0.3333333   0.5000000), wk =   0.0046296
        k(  125) = (   0.5000000   0.3333333   0.6666667), wk =   0.0046296
        k(  126) = (   0.5000000   0.3333333   0.8333333), wk =   0.0046296
        k(  127) = (   0.5000000   0.5000000   0.0000000), wk =   0.0046296
        k(  128) = (   0.5000000   0.5000000   0.1666667), wk =   0.0046296
        k(  129) = (   0.5000000   0.5000000   0.3333333), wk =   0.0046296
        k(  130) = (   0.5000000   0.5000000   0.5000000), wk =   0.0046296
        k(  131) = (   0.5000000   0.5000000   0.6666667), wk =   0.0046296
        k(  132) = (   0.5000000   0.5000000   0.8333333), wk =   0.0046296
        k(  133) = (   0.5000000   0.6666667   0.0000000), wk =   0.0046296
        k(  134) = (   0.5000000   0.6666667   0.1666667), wk =   0.0046296
        k(  135) = (   0.5000000   0.6666667   0.3333333), wk =   0.0046296
        k(  136) = (   0.5000000   0.6666667   0.5000000), wk =   0.0046296
        k(  137) = (   0.5000000   0.6666667   0.6666667), wk =   0.0046296
        k(  138) = (   0.5000000   0.6666667   0.8333333), wk =   0.0046296
        k(  139) = (   0.5000000   0.8333333   0.0000000), wk =   0.0046296
        k(  140) = (   0.5000000   0.8333333   0.1666667), wk =   0.0046296
        k(  141) = (   0.5000000   0.8333333   0.3333333), wk =   0.0046296
        k(  142) = (   0.5000000   0.8333333   0.5000000), wk =   0.0046296
        k(  143) = (   0.5000000   0.8333333   0.6666667), wk =   0.0046296
        k(  144) = (   0.5000000   0.8333333   0.8333333), wk =   0.0046296
        k(  145) = (   0.6666667   0.0000000   0.0000000), wk =   0.0046296
        k(  146) = (   0.6666667   0.0000000   0.1666667), wk =   0.0046296
        k(  147) = (   0.6666667   0.0000000   0.3333333), wk =   0.0046296
        k(  148) = (   0.6666667   0.0000000   0.5000000), wk =   0.0046296
        k(  149) = (   0.6666667   0.0000000   0.6666667), wk =   0.0046296
        k(  150) = (   0.6666667   0.0000000   0.8333333), wk =   0.0046296
        k(  151) = (   0.6666667   0.1666667   0.0000000), wk =   0.0046296
        k(  152) = (   0.6666667   0.1666667   0.1666667), wk =   0.0046296
        k(  153) = (   0.6666667   0.1666667   0.3333333), wk =   0.0046296
        k(  154) = (   0.6666667   0.1666667   0.5000000), wk =   0.0046296
        k(  155) = (   0.6666667   0.1666667   0.6666667), wk =   0.0046296
        k(  156) = (   0.6666667   0.1666667   0.8333333), wk =   0.0046296
        k(  157) = (   0.6666667   0.3333333   0.0000000), wk =   0.0046296
        k(  158) = (   0.6666667   0.3333333   0.1666667), wk =   0.0046296
        k(  159) = (   0.6666667   0.3333333   0.3333333), wk =   0.0046296
        k(  160) = (   0.6666667   0.3333333   0.5000000), wk =   0.0046296
        k(  161) = (   0.6666667   0.3333333   0.6666667), wk =   0.0046296
        k(  162) = (   0.6666667   0.3333333   0.8333333), wk =   0.0046296
        k(  163) = (   0.6666667   0.5000000   0.0000000), wk =   0.0046296
        k(  164) = (   0.6666667   0.5000000   0.1666667), wk =   0.0046296
        k(  165) = (   0.6666667   0.5000000   0.3333333), wk =   0.0046296
        k(  166) = (   0.6666667   0.5000000   0.5000000), wk =   0.0046296
        k(  167) = (   0.6666667   0.5000000   0.6666667), wk =   0.0046296
        k(  168) = (   0.6666667   0.5000000   0.8333333), wk =   0.0046296
        k(  169) = (   0.6666667   0.6666667   0.0000000), wk =   0.0046296
        k(  170) = (   0.6666667   0.6666667   0.1666667), wk =   0.0046296
        k(  171) = (   0.6666667   0.6666667   0.3333333), wk =   0.0046296
        k(  172) = (   0.6666667   0.6666667   0.5000000), wk =   0.0046296
        k(  173) = (   0.6666667   0.6666667   0.6666667), wk =   0.0046296
        k(  174) = (   0.6666667   0.6666667   0.8333333), wk =   0.0046296
        k(  175) = (   0.6666667   0.8333333   0.0000000), wk =   0.0046296
        k(  176) = (   0.6666667   0.8333333   0.1666667), wk =   0.0046296
        k(  177) = (   0.6666667   0.8333333   0.3333333), wk =   0.0046296
        k(  178) = (   0.6666667   0.8333333   0.5000000), wk =   0.0046296
        k(  179) = (   0.6666667   0.8333333   0.6666667), wk =   0.0046296
        k(  180) = (   0.6666667   0.8333333   0.8333333), wk =   0.0046296
        k(  181) = (   0.8333333   0.0000000   0.0000000), wk =   0.0046296
        k(  182) = (   0.8333333   0.0000000   0.1666667), wk =   0.0046296
        k(  183) = (   0.8333333   0.0000000   0.3333333), wk =   0.0046296
        k(  184) = (   0.8333333   0.0000000   0.5000000), wk =   0.0046296
        k(  185) = (   0.8333333   0.0000000   0.6666667), wk =   0.0046296
        k(  186) = (   0.8333333   0.0000000   0.8333333), wk =   0.0046296
        k(  187) = (   0.8333333   0.1666667   0.0000000), wk =   0.0046296
        k(  188) = (   0.8333333   0.1666667   0.1666667), wk =   0.0046296
        k(  189) = (   0.8333333   0.1666667   0.3333333), wk =   0.0046296
        k(  190) = (   0.8333333   0.1666667   0.5000000), wk =   0.0046296
        k(  191) = (   0.8333333   0.1666667   0.6666667), wk =   0.0046296
        k(  192) = (   0.8333333   0.1666667   0.8333333), wk =   0.0046296
        k(  193) = (   0.8333333   0.3333333   0.0000000), wk =   0.0046296
        k(  194) = (   0.8333333   0.3333333   0.1666667), wk =   0.0046296
        k(  195) = (   0.8333333   0.3333333   0.3333333), wk =   0.0046296
        k(  196) = (   0.8333333   0.3333333   0.5000000), wk =   0.0046296
        k(  197) = (   0.8333333   0.3333333   0.6666667), wk =   0.0046296
        k(  198) = (   0.8333333   0.3333333   0.8333333), wk =   0.0046296
        k(  199) = (   0.8333333   0.5000000   0.0000000), wk =   0.0046296
        k(  200) = (   0.8333333   0.5000000   0.1666667), wk =   0.0046296
        k(  201) = (   0.8333333   0.5000000   0.3333333), wk =   0.0046296
        k(  202) = (   0.8333333   0.5000000   0.5000000), wk =   0.0046296
        k(  203) = (   0.8333333   0.5000000   0.6666667), wk =   0.0046296
        k(  204) = (   0.8333333   0.5000000   0.8333333), wk =   0.0046296
        k(  205) = (   0.8333333   0.6666667   0.0000000), wk =   0.0046296
        k(  206) = (   0.8333333   0.6666667   0.1666667), wk =   0.0046296
        k(  207) = (   0.8333333   0.6666667   0.3333333), wk =   0.0046296
        k(  208) = (   0.8333333   0.6666667   0.5000000), wk =   0.0046296
        k(  209) = (   0.8333333   0.6666667   0.6666667), wk =   0.0046296
        k(  210) = (   0.8333333   0.6666667   0.8333333), wk =   0.0046296
        k(  211) = (   0.8333333   0.8333333   0.0000000), wk =   0.0046296
        k(  212) = (   0.8333333   0.8333333   0.1666667), wk =   0.0046296
        k(  213) = (   0.8333333   0.8333333   0.3333333), wk =   0.0046296
        k(  214) = (   0.8333333   0.8333333   0.5000000), wk =   0.0046296
        k(  215) = (   0.8333333   0.8333333   0.6666667), wk =   0.0046296
        k(  216) = (   0.8333333   0.8333333   0.8333333), wk =   0.0046296

     Dense  grid:     7631 G-vectors     FFT dimensions: (  32,  32,  32)

     Dynamical RAM for                 wfc:       0.46 MB

     Dynamical RAM for     wfc (w. buffer):       0.46 MB

     Dynamical RAM for           str. fact:       0.12 MB

     Dynamical RAM for           local pot:       0.00 MB

     Dynamical RAM for          nlocal pot:       0.98 MB

     Dynamical RAM for                qrad:       2.49 MB

     Dynamical RAM for          rho,v,vnew:       4.40 MB

     Dynamical RAM for           G-vectors:       0.49 MB

     Dynamical RAM for          h,s,v(r/c):       0.05 MB

     Dynamical RAM for          <psi|beta>:       0.03 MB

     Dynamical RAM for                 psi:       0.92 MB

     Dynamical RAM for                hpsi:       0.92 MB

     Dynamical RAM for      wfcinit/wfcrot:       0.70 MB

     Estimated static dynamical RAM per process >      11.17 MB

     Estimated max dynamical RAM per process >      13.10 MB

     Estimated total dynamical RAM >     314.39 MB

     The potential is recalculated from file :
     ./si.save/charge-density

     Starting wfcs are   16 randomized atomic wfcs

     Band Structure Calculation
     Davidson diagonalization with overlap

     Computing kpt #:     1  of     9 on this pool
     total cpu time spent up to now is        1.7 secs

     Computing kpt #:     2  of     9 on this pool
     total cpu time spent up to now is        2.6 secs

     Computing kpt #:     3  of     9 on this pool
     total cpu time spent up to now is        3.5 secs

     Computing kpt #:     4  of     9 on this pool
     total cpu time spent up to now is        4.4 secs

     Computing kpt #:     5  of     9 on this pool
     total cpu time spent up to now is        5.3 secs

     Computing kpt #:     6  of     9 on this pool
     total cpu time spent up to now is        6.2 secs

     Computing kpt #:     7  of     9 on this pool
     total cpu time spent up to now is        7.2 secs

     Computing kpt #:     8  of     9 on this pool
     total cpu time spent up to now is        8.2 secs

     Computing kpt #:     9  of     9 on this pool
     total cpu time spent up to now is        9.1 secs

     ethr =  1.25E-13,  avg # of iterations = 51.6

     total cpu time spent up to now is        9.1 secs

     End of band structure calculation

          k = 0.0000 0.0000 0.0000 (   941 PWs)   bands (ev):

    -5.7332  -5.7332   6.2001   6.2001   6.2480   6.2480   6.2480   6.2480
     8.7650   8.7650   8.7999   8.7999   8.7999   8.7999   9.5758   9.5758

     occupation numbers 
     1.0000   1.0000   1.0000   1.0000   1.0000   1.0000   1.0000   1.0000
     0.0000   0.0000   0.0000   0.0000   0.0000   0.0000   0.0000   0.0000

          k =-0.1667 0.1667-0.1667 (   923 PWs)   bands (ev):

    -5.3721  -5.3721   3.8471   3.8471   5.7648   5.7648   5.7960   5.7960
     8.5742   8.5742   9.4250   9.4250   9.4487   9.4487  11.6719  11.6719

     occupation numbers 
     1.0000   1.0000   1.0000   1.0000   1.0000   1.0000   1.0000   1.0000
     0.0000   0.0000   0.0000   0.0000   0.0000   0.0000   0.0000   0.0000

          k =-0.3333 0.3333-0.3333 (   938 PWs)   bands (ev):

    -4.3569  -4.3569   0.8932   0.8932   5.2136   5.2136   5.2451   5.2451
     7.9863   7.9863   9.7266   9.7266   9.7443   9.7443  14.0975  14.0975

     occupation numbers 
     1.0000   1.0000   1.0000   1.0000   1.0000   1.0000   1.0000   1.0000
     0.0000   0.0000   0.0000   0.0000   0.0000   0.0000   0.0000   0.0000

          k =-0.5000 0.5000-0.5000 (   960 PWs)   bands (ev):

    -3.4028  -3.4028  -0.7419  -0.7419   5.0150   5.0150   5.0467   5.0467
     7.7609   7.7609   9.5624   9.5624   9.5768   9.5768  13.9637  13.9637

     occupation numbers 
     1.0000   1.0000   1.0000   1.0000   1.0000   1.0000   1.0000   1.0000
     0.0000   0.0000   0.0000   0.0000   0.0000   0.0000   0.0000   0.0000

          k =-0.6667 0.6667-0.6667 (   938 PWs)   bands (ev):

    -4.3569  -4.3569   0.8932   0.8932   5.2136   5.2136   5.2451   5.2451
     7.9863   7.9863   9.7266   9.7266   9.7443   9.7443  14.0975  14.0975

     occupation numbers 
     1.0000   1.0000   1.0000   1.0000   1.0000   1.0000   1.0000   1.0000
     0.0000   0.0000   0.0000   0.0000   0.0000   0.0000   0.0000   0.0000

          k =-0.8333 0.8333-0.8333 (   923 PWs)   bands (ev):

    -5.3721  -5.3721   3.8471   3.8471   5.7648   5.7648   5.7960   5.7960
     8.5742   8.5742   9.4250   9.4250   9.4487   9.4487  11.6719  11.6719

     occupation numbers 
     1.0000   1.0000   1.0000   1.0000   1.0000   1.0000   1.0000   1.0000
     0.0000   0.0000   0.0000   0.0000   0.0000   0.0000   0.0000   0.0000

          k = 0.1667 0.1667 0.1667 (   923 PWs)   bands (ev):

    -5.3721  -5.3721   3.8471   3.8471   5.7648   5.7648   5.7960   5.7960
     8.5742   8.5742   9.4250   9.4250   9.4487   9.4487  11.6719  11.6719

     occupation numbers 
     1.0000   1.0000   1.0000   1.0000   1.0000   1.0000   1.0000   1.0000
     0.0000   0.0000   0.0000   0.0000   0.0000   0.0000   0.0000   0.0000

          k = 0.0000 0.3333 0.0000 (   941 PWs)   bands (ev):

    -5.2492  -5.2492   4.1890   4.1890   5.0302   5.0302   5.0437   5.0437
     7.9322   7.9322  10.5241  10.5241  10.5707  10.5707  10.5756  10.5756

     occupation numbers 
     1.0000   1.0000   1.0000   1.0000   1.0000   1.0000   1.0000   1.0000
     0.0000   0.0000   0.0000   0.0000   0.0000   0.0000   0.0000   0.0000

          k =-0.1667 0.5000-0.1667 (   942 PWs)   bands (ev):

    -4.4342  -4.4342   1.7907   1.7907   4.2357   4.2357   4.4837   4.4837
     8.1939   8.1939  10.2922  10.2922  10.7563  10.7563  11.3042  11.3042

     occupation numbers 
     1.0000   1.0000   1.0000   1.0000   1.0000   1.0000   1.0000   1.0000
     0.0000   0.0000   0.0000   0.0000   0.0000   0.0000   0.0000   0.0000

          k =-0.3333 0.6667-0.3333 (   942 PWs)   bands (ev):

    -3.2434  -3.2434  -0.3782  -0.3782   3.4517   3.4517   4.4531   4.4531
     8.2707   8.2707  10.3445  10.3445  10.8521  10.8521  12.6518  12.6518

     occupation numbers 
     1.0000   1.0000   1.0000   1.0000   1.0000   1.0000   1.0000   1.0000
     0.0000   0.0000   0.0000   0.0000   0.0000   0.0000   0.0000   0.0000

          k =-0.5000 0.8333-0.5000 (   945 PWs)   bands (ev):

    -3.6282  -3.6282   0.2208   0.2208   3.1812   3.1812   4.9323   4.9323
     8.6789   8.6789  10.3533  10.3533  10.4582  10.4582  13.5205  13.5205

     occupation numbers 
     1.0000   1.0000   1.0000   1.0000   1.0000   1.0000   1.0000   1.0000
     0.0000   0.0000   0.0000   0.0000   0.0000   0.0000   0.0000   0.0000

          k =-0.6667 1.0000-0.6667 (   935 PWs)   bands (ev):

    -4.7841  -4.7841   2.5098   2.5098   3.8167   3.8167   5.6656   5.6656
     9.2636   9.2636   9.7839   9.7839  10.0797  10.0797  11.8919  11.8919

     occupation numbers 
     1.0000   1.0000   1.0000   1.0000   1.0000   1.0000   1.0000   1.0000
     0.0000   0.0000   0.0000   0.0000   0.0000   0.0000   0.0000   0.0000

          k = 0.3333 0.3333 0.3333 (   938 PWs)   bands (ev):

    -4.3569  -4.3569   0.8932   0.8932   5.2136   5.2136   5.2451   5.2451
     7.9863   7.9863   9.7266   9.7266   9.7443   9.7443  14.0975  14.0975

     occupation numbers 
     1.0000   1.0000   1.0000   1.0000   1.0000   1.0000   1.0000   1.0000
     0.0000   0.0000   0.0000   0.0000   0.0000   0.0000   0.0000   0.0000

          k = 0.1667 0.5000 0.1667 (   942 PWs)   bands (ev):

    -4.4342  -4.4342   1.7907   1.7907   4.2357   4.2357   4.4837   4.4837
     8.1939   8.1939  10.2922  10.2922  10.7563  10.7563  11.3042  11.3042

     occupation numbers 
     1.0000   1.0000   1.0000   1.0000   1.0000   1.0000   1.0000   1.0000
     0.0000   0.0000   0.0000   0.0000   0.0000   0.0000   0.0000   0.0000

          k = 0.0000 0.6667 0.0000 (   950 PWs)   bands (ev):

    -3.8296  -3.8296   1.2153   1.2153   3.8089   3.8089   3.8139   3.8139
     6.9566   6.9566   8.2238   8.2238  13.4881  13.4881  13.4946  13.4946

     occupation numbers 
     1.0000   1.0000   1.0000   1.0000   1.0000   1.0000   1.0000   1.0000
     0.0000   0.0000   0.0000   0.0000   0.0000   0.0000   0.0000   0.0000

          k =-0.1667 0.8333-0.1667 (   946 PWs)   bands (ev):

    -2.6662  -2.6662  -0.3391  -0.3391   2.5973   2.5973   3.6748   3.6748
     7.2938   7.2938   8.9488   8.9488  13.6795  13.6795  13.7088  13.7088

     occupation numbers 
     1.0000   1.0000   1.0000   1.0000   1.0000   1.0000   1.0000   1.0000
     0.0000   0.0000   0.0000   0.0000   0.0000   0.0000   0.0000   0.0000

          k =-0.3333 1.0000-0.3333 (   955 PWs)   bands (ev):

    -2.4703  -2.4703  -0.5439  -0.5439   1.8167   1.8167   4.1173   4.1173
     7.7972   7.7972  12.0378  12.0378  12.7018  12.7018  13.3046  13.3046

     occupation numbers 
     1.0000   1.0000   1.0000   1.0000   1.0000   1.0000   1.0000   1.0000
     0.0000   0.0000   0.0000   0.0000   0.0000   0.0000   0.0000   0.0000

          k =-0.5000 1.1667-0.5000 (   945 PWs)   bands (ev):

    -3.6282  -3.6282   0.2208   0.2208   3.1812   3.1812   4.9323   4.9323
     8.6789   8.6789  10.3533  10.3533  10.4582  10.4582  13.5205  13.5205

     occupation numbers 
     1.0000   1.0000   1.0000   1.0000   1.0000   1.0000   1.0000   1.0000
     0.0000   0.0000   0.0000   0.0000   0.0000   0.0000   0.0000   0.0000

          k = 0.5000 0.5000 0.5000 (   960 PWs)   bands (ev):

    -3.4028  -3.4028  -0.7419  -0.7419   5.0150   5.0150   5.0467   5.0467
     7.7609   7.7609   9.5624   9.5624   9.5768   9.5768  13.9637  13.9637

     occupation numbers 
     1.0000   1.0000   1.0000   1.0000   1.0000   1.0000   1.0000   1.0000
     0.0000   0.0000   0.0000   0.0000   0.0000   0.0000   0.0000   0.0000

          k = 0.3333 0.6667 0.3333 (   942 PWs)   bands (ev):

    -3.2434  -3.2434  -0.3782  -0.3782   3.4517   3.4517   4.4531   4.4531
     8.2707   8.2707  10.3445  10.3445  10.8521  10.8521  12.6518  12.6518

     occupation numbers 
     1.0000   1.0000   1.0000   1.0000   1.0000   1.0000   1.0000   1.0000
     0.0000   0.0000   0.0000   0.0000   0.0000   0.0000   0.0000   0.0000

          k = 0.1667 0.8333 0.1667 (   946 PWs)   bands (ev):

    -2.6662  -2.6662  -0.3391  -0.3391   2.5973   2.5973   3.6748   3.6748
     7.2938   7.2938   8.9488   8.9488  13.6795  13.6795  13.7088  13.7088

     occupation numbers 
     1.0000   1.0000   1.0000   1.0000   1.0000   1.0000   1.0000   1.0000
     0.0000   0.0000   0.0000   0.0000   0.0000   0.0000   0.0000   0.0000

          k = 0.0000 1.0000 0.0000 (   950 PWs)   bands (ev):

    -1.5902  -1.5902  -1.5902  -1.5902   3.3765   3.3765   3.3765   3.3765
     6.9409   6.9409   6.9409   6.9409  16.3237  16.3237  16.3237  16.3237

     occupation numbers 
     1.0000   1.0000   1.0000   1.0000   1.0000   1.0000   1.0000   1.0000
     0.0000   0.0000   0.0000   0.0000   0.0000   0.0000   0.0000   0.0000

          k =-0.1667 1.1667-0.1667 (   946 PWs)   bands (ev):

    -2.6662  -2.6662  -0.3391  -0.3391   2.5973   2.5973   3.6748   3.6748
     7.2938   7.2938   8.9488   8.9488  13.6795  13.6795  13.7088  13.7088

     occupation numbers 
     1.0000   1.0000   1.0000   1.0000   1.0000   1.0000   1.0000   1.0000
     0.0000   0.0000   0.0000   0.0000   0.0000   0.0000   0.0000   0.0000

          k =-0.3333 1.3333-0.3333 (   942 PWs)   bands (ev):

    -3.2434  -3.2434  -0.3782  -0.3782   3.4517   3.4517   4.4531   4.4531
     8.2707   8.2707  10.3445  10.3445  10.8521  10.8521  12.6518  12.6518

     occupation numbers 
     1.0000   1.0000   1.0000   1.0000   1.0000   1.0000   1.0000   1.0000
     0.0000   0.0000   0.0000   0.0000   0.0000   0.0000   0.0000   0.0000

          k = 0.6667 0.6667 0.6667 (   938 PWs)   bands (ev):

    -4.3569  -4.3569   0.8932   0.8932   5.2136   5.2136   5.2451   5.2451
     7.9863   7.9863   9.7266   9.7266   9.7443   9.7443  14.0975  14.0975

     occupation numbers 
     1.0000   1.0000   1.0000   1.0000   1.0000   1.0000   1.0000   1.0000
     0.0000   0.0000   0.0000   0.0000   0.0000   0.0000   0.0000   0.0000

          k = 0.5000 0.8333 0.5000 (   945 PWs)   bands (ev):

    -3.6282  -3.6282   0.2208   0.2208   3.1812   3.1812   4.9323   4.9323
     8.6789   8.6789  10.3533  10.3533  10.4582  10.4582  13.5205  13.5205

     occupation numbers 
     1.0000   1.0000   1.0000   1.0000   1.0000   1.0000   1.0000   1.0000
     0.0000   0.0000   0.0000   0.0000   0.0000   0.0000   0.0000   0.0000

          k = 0.3333 1.0000 0.3333 (   955 PWs)   bands (ev):

    -2.4703  -2.4703  -0.5439  -0.5439   1.8167   1.8167   4.1173   4.1173
     7.7972   7.7972  12.0378  12.0378  12.7018  12.7018  13.3046  13.3046

     occupation numbers 
     1.0000   1.0000   1.0000   1.0000   1.0000   1.0000   1.0000   1.0000
     0.0000   0.0000   0.0000   0.0000   0.0000   0.0000   0.0000   0.0000

          k = 0.1667 1.1667 0.1667 (   946 PWs)   bands (ev):

    -2.6662  -2.6662  -0.3391  -0.3391   2.5973   2.5973   3.6748   3.6748
     7.2938   7.2938   8.9488   8.9488  13.6795  13.6795  13.7088  13.7088

     occupation numbers 
     1.0000   1.0000   1.0000   1.0000   1.0000   1.0000   1.0000   1.0000
     0.0000   0.0000   0.0000   0.0000   0.0000   0.0000   0.0000   0.0000

          k = 0.0000 1.3333 0.0000 (   950 PWs)   bands (ev):

    -3.8296  -3.8296   1.2153   1.2153   3.8089   3.8089   3.8139   3.8139
     6.9566   6.9566   8.2238   8.2238  13.4881  13.4881  13.4946  13.4946

     occupation numbers 
     1.0000   1.0000   1.0000   1.0000   1.0000   1.0000   1.0000   1.0000
     0.0000   0.0000   0.0000   0.0000   0.0000   0.0000   0.0000   0.0000

          k =-0.1667 1.5000-0.1667 (   942 PWs)   bands (ev):

    -4.4342  -4.4342   1.7907   1.7907   4.2357   4.2357   4.4837   4.4837
     8.1939   8.1939  10.2922  10.2922  10.7563  10.7563  11.3042  11.3042

     occupation numbers 
     1.0000   1.0000   1.0000   1.0000   1.0000   1.0000   1.0000   1.0000
     0.0000   0.0000   0.0000   0.0000   0.0000   0.0000   0.0000   0.0000

          k = 0.8333 0.8333 0.8333 (   923 PWs)   bands (ev):

    -5.3721  -5.3721   3.8471   3.8471   5.7648   5.7648   5.7960   5.7960
     8.5742   8.5742   9.4250   9.4250   9.4487   9.4487  11.6719  11.6719

     occupation numbers 
     1.0000   1.0000   1.0000   1.0000   1.0000   1.0000   1.0000   1.0000
     0.0000   0.0000   0.0000   0.0000   0.0000   0.0000   0.0000   0.0000

          k = 0.6667 1.0000 0.6667 (   935 PWs)   bands (ev):

    -4.7841  -4.7841   2.5098   2.5098   3.8167   3.8167   5.6656   5.6656
     9.2636   9.2636   9.7839   9.7839  10.0797  10.0797  11.8919  11.8919

     occupation numbers 
     1.0000   1.0000   1.0000   1.0000   1.0000   1.0000   1.0000   1.0000
     0.0000   0.0000   0.0000   0.0000   0.0000   0.0000   0.0000   0.0000

          k = 0.5000 1.1667 0.5000 (   945 PWs)   bands (ev):

    -3.6282  -3.6282   0.2208   0.2208   3.1812   3.1812   4.9323   4.9323
     8.6789   8.6789  10.3533  10.3533  10.4582  10.4582  13.5205  13.5205

     occupation numbers 
     1.0000   1.0000   1.0000   1.0000   1.0000   1.0000   1.0000   1.0000
     0.0000   0.0000   0.0000   0.0000   0.0000   0.0000   0.0000   0.0000

          k = 0.3333 1.3333 0.3333 (   942 PWs)   bands (ev):

    -3.2434  -3.2434  -0.3782  -0.3782   3.4517   3.4517   4.4531   4.4531
     8.2707   8.2707  10.3445  10.3445  10.8521  10.8521  12.6518  12.6518

     occupation numbers 
     1.0000   1.0000   1.0000   1.0000   1.0000   1.0000   1.0000   1.0000
     0.0000   0.0000   0.0000   0.0000   0.0000   0.0000   0.0000   0.0000

          k = 0.1667 1.5000 0.1667 (   942 PWs)   bands (ev):

    -4.4342  -4.4342   1.7907   1.7907   4.2357   4.2357   4.4837   4.4837
     8.1939   8.1939  10.2922  10.2922  10.7563  10.7563  11.3042  11.3042

     occupation numbers 
     1.0000   1.0000   1.0000   1.0000   1.0000   1.0000   1.0000   1.0000
     0.0000   0.0000   0.0000   0.0000   0.0000   0.0000   0.0000   0.0000

          k = 0.0000 1.6667 0.0000 (   941 PWs)   bands (ev):

    -5.2492  -5.2492   4.1890   4.1890   5.0302   5.0302   5.0437   5.0437
     7.9322   7.9322  10.5241  10.5241  10.5707  10.5707  10.5756  10.5756

     occupation numbers 
     1.0000   1.0000   1.0000   1.0000   1.0000   1.0000   1.0000   1.0000
     0.0000   0.0000   0.0000   0.0000   0.0000   0.0000   0.0000   0.0000

          k =-0.1667-0.1667 0.1667 (   923 PWs)   bands (ev):

    -5.3721  -5.3721   3.8471   3.8471   5.7648   5.7648   5.7960   5.7960
     8.5742   8.5742   9.4250   9.4250   9.4487   9.4487  11.6719  11.6719

     occupation numbers 
     1.0000   1.0000   1.0000   1.0000   1.0000   1.0000   1.0000   1.0000
     0.0000   0.0000   0.0000   0.0000   0.0000   0.0000   0.0000   0.0000

          k =-0.3333 0.0000 0.0000 (   941 PWs)   bands (ev):

    -5.2492  -5.2492   4.1890   4.1890   5.0302   5.0302   5.0437   5.0437
     7.9322   7.9322  10.5241  10.5241  10.5707  10.5707  10.5756  10.5756

     occupation numbers 
     1.0000   1.0000   1.0000   1.0000   1.0000   1.0000   1.0000   1.0000
     0.0000   0.0000   0.0000   0.0000   0.0000   0.0000   0.0000   0.0000

          k =-0.5000 0.1667-0.1667 (   942 PWs)   bands (ev):

    -4.4342  -4.4342   1.7907   1.7907   4.2357   4.2357   4.4837   4.4837
     8.1939   8.1939  10.2922  10.2922  10.7563  10.7563  11.3042  11.3042

     occupation numbers 
     1.0000   1.0000   1.0000   1.0000   1.0000   1.0000   1.0000   1.0000
     0.0000   0.0000   0.0000   0.0000   0.0000   0.0000   0.0000   0.0000

          k =-0.6667 0.3333-0.3333 (   942 PWs)   bands (ev):

    -3.2434  -3.2434  -0.3782  -0.3782   3.4517   3.4517   4.4531   4.4531
     8.2707   8.2707  10.3445  10.3445  10.8521  10.8521  12.6518  12.6518

     occupation numbers 
     1.0000   1.0000   1.0000   1.0000   1.0000   1.0000   1.0000   1.0000
     0.0000   0.0000   0.0000   0.0000   0.0000   0.0000   0.0000   0.0000

          k =-0.8333 0.5000-0.5000 (   945 PWs)   bands (ev):

[...]

          k =-0.5000 0.5000 0.8333 (   945 PWs)   bands (ev):

    -3.6282  -3.6282   0.2208   0.2208   3.1812   3.1812   4.9323   4.9323
     8.6789   8.6789  10.3533  10.3533  10.4582  10.4582  13.5205  13.5205

     occupation numbers 
     1.0000   1.0000   1.0000   1.0000   1.0000   1.0000   1.0000   1.0000
     0.0000   0.0000   0.0000   0.0000   0.0000   0.0000   0.0000   0.0000

          k =-0.6667 0.6667 0.6667 (   938 PWs)   bands (ev):

    -4.3569  -4.3569   0.8932   0.8932   5.2136   5.2136   5.2451   5.2451
     7.9863   7.9863   9.7266   9.7266   9.7443   9.7443  14.0975  14.0975

     occupation numbers 
     1.0000   1.0000   1.0000   1.0000   1.0000   1.0000   1.0000   1.0000
     0.0000   0.0000   0.0000   0.0000   0.0000   0.0000   0.0000   0.0000

          k =-0.8333 0.8333 0.5000 (   942 PWs)   bands (ev):

    -4.4342  -4.4342   1.7907   1.7907   4.2357   4.2357   4.4837   4.4837
     8.1939   8.1939  10.2922  10.2922  10.7563  10.7563  11.3042  11.3042

     occupation numbers 
     1.0000   1.0000   1.0000   1.0000   1.0000   1.0000   1.0000   1.0000
     0.0000   0.0000   0.0000   0.0000   0.0000   0.0000   0.0000   0.0000

          k = 0.1667 0.1667 1.5000 (   942 PWs)   bands (ev):

    -4.4342  -4.4342   1.7907   1.7907   4.2357   4.2357   4.4837   4.4837
     8.1939   8.1939  10.2922  10.2922  10.7563  10.7563  11.3042  11.3042

     occupation numbers 
     1.0000   1.0000   1.0000   1.0000   1.0000   1.0000   1.0000   1.0000
     0.0000   0.0000   0.0000   0.0000   0.0000   0.0000   0.0000   0.0000

          k =-0.0000 0.3333 1.3333 (   937 PWs)   bands (ev):

    -3.4446  -3.4446   0.5825   0.5825   2.6597   2.6597   3.9346   3.9346
     9.0833   9.0833   9.9486   9.9486  10.4617  10.4617  13.2955  13.2955

     occupation numbers 
     1.0000   1.0000   1.0000   1.0000   1.0000   1.0000   1.0000   1.0000
     0.0000   0.0000   0.0000   0.0000   0.0000   0.0000   0.0000   0.0000

          k =-0.1667 0.5000 1.1667 (   942 PWs)   bands (ev):

    -2.4603  -2.4603  -0.6166  -0.6166   2.2195   2.2195   3.4679   3.4679
     9.5889   9.5889   9.7860   9.7860  12.3342  12.3342  12.7462  12.7462

     occupation numbers 
     1.0000   1.0000   1.0000   1.0000   1.0000   1.0000   1.0000   1.0000
     0.0000   0.0000   0.0000   0.0000   0.0000   0.0000   0.0000   0.0000

          k =-0.3333 0.6667 1.0000 (   937 PWs)   bands (ev):

    -3.4446  -3.4446   0.5825   0.5825   2.6597   2.6597   3.9346   3.9346
     9.0833   9.0833   9.9486   9.9486  10.4617  10.4617  13.2955  13.2955

     occupation numbers 
     1.0000   1.0000   1.0000   1.0000   1.0000   1.0000   1.0000   1.0000
     0.0000   0.0000   0.0000   0.0000   0.0000   0.0000   0.0000   0.0000

          k =-0.5000 0.8333 0.8333 (   942 PWs)   bands (ev):

    -4.4342  -4.4342   1.7907   1.7907   4.2357   4.2357   4.4837   4.4837
     8.1939   8.1939  10.2922  10.2922  10.7563  10.7563  11.3042  11.3042

     occupation numbers 
     1.0000   1.0000   1.0000   1.0000   1.0000   1.0000   1.0000   1.0000
     0.0000   0.0000   0.0000   0.0000   0.0000   0.0000   0.0000   0.0000

          k =-0.6667 1.0000 0.6667 (   935 PWs)   bands (ev):

    -4.7841  -4.7841   2.5098   2.5098   3.8167   3.8167   5.6656   5.6656
     9.2636   9.2636   9.7839   9.7839  10.0797  10.0797  11.8919  11.8919

     occupation numbers 
     1.0000   1.0000   1.0000   1.0000   1.0000   1.0000   1.0000   1.0000
     0.0000   0.0000   0.0000   0.0000   0.0000   0.0000   0.0000   0.0000

          k =-0.8333-0.8333 0.8333 (   923 PWs)   bands (ev):

    -5.3721  -5.3721   3.8471   3.8471   5.7648   5.7648   5.7960   5.7960
     8.5742   8.5742   9.4250   9.4250   9.4487   9.4487  11.6719  11.6719

     occupation numbers 
     1.0000   1.0000   1.0000   1.0000   1.0000   1.0000   1.0000   1.0000
     0.0000   0.0000   0.0000   0.0000   0.0000   0.0000   0.0000   0.0000

          k =-1.0000-0.6667 0.6667 (   935 PWs)   bands (ev):

    -4.7841  -4.7841   2.5098   2.5098   3.8167   3.8167   5.6656   5.6656
     9.2636   9.2636   9.7839   9.7839  10.0797  10.0797  11.8919  11.8919

     occupation numbers 
     1.0000   1.0000   1.0000   1.0000   1.0000   1.0000   1.0000   1.0000
     0.0000   0.0000   0.0000   0.0000   0.0000   0.0000   0.0000   0.0000

          k =-1.1667-0.5000 0.5000 (   945 PWs)   bands (ev):

    -3.6282  -3.6282   0.2208   0.2208   3.1812   3.1812   4.9323   4.9323
     8.6789   8.6789  10.3533  10.3533  10.4582  10.4582  13.5205  13.5205

     occupation numbers 
     1.0000   1.0000   1.0000   1.0000   1.0000   1.0000   1.0000   1.0000
     0.0000   0.0000   0.0000   0.0000   0.0000   0.0000   0.0000   0.0000

          k =-1.3333-0.3333 0.3333 (   942 PWs)   bands (ev):

    -3.2434  -3.2434  -0.3782  -0.3782   3.4517   3.4517   4.4531   4.4531
     8.2707   8.2707  10.3445  10.3445  10.8521  10.8521  12.6518  12.6518

     occupation numbers 
     1.0000   1.0000   1.0000   1.0000   1.0000   1.0000   1.0000   1.0000
     0.0000   0.0000   0.0000   0.0000   0.0000   0.0000   0.0000   0.0000

          k =-1.5000-0.1667 0.1667 (   942 PWs)   bands (ev):

    -4.4342  -4.4342   1.7907   1.7907   4.2357   4.2357   4.4837   4.4837
     8.1939   8.1939  10.2922  10.2922  10.7563  10.7563  11.3042  11.3042

     occupation numbers 
     1.0000   1.0000   1.0000   1.0000   1.0000   1.0000   1.0000   1.0000
     0.0000   0.0000   0.0000   0.0000   0.0000   0.0000   0.0000   0.0000

          k =-1.6667 0.0000 0.0000 (   941 PWs)   bands (ev):

    -5.2492  -5.2492   4.1890   4.1890   5.0302   5.0302   5.0437   5.0437
     7.9322   7.9322  10.5241  10.5241  10.5707  10.5707  10.5756  10.5756

     occupation numbers 
     1.0000   1.0000   1.0000   1.0000   1.0000   1.0000   1.0000   1.0000
     0.0000   0.0000   0.0000   0.0000   0.0000   0.0000   0.0000   0.0000

          k =-0.6667-0.6667 1.0000 (   935 PWs)   bands (ev):

    -4.7841  -4.7841   2.5098   2.5098   3.8167   3.8167   5.6656   5.6656
     9.2636   9.2636   9.7839   9.7839  10.0797  10.0797  11.8919  11.8919

     occupation numbers 
     1.0000   1.0000   1.0000   1.0000   1.0000   1.0000   1.0000   1.0000
     0.0000   0.0000   0.0000   0.0000   0.0000   0.0000   0.0000   0.0000

          k =-0.8333-0.5000 0.8333 (   942 PWs)   bands (ev):

    -4.4342  -4.4342   1.7907   1.7907   4.2357   4.2357   4.4837   4.4837
     8.1939   8.1939  10.2922  10.2922  10.7563  10.7563  11.3042  11.3042

     occupation numbers 
     1.0000   1.0000   1.0000   1.0000   1.0000   1.0000   1.0000   1.0000
     0.0000   0.0000   0.0000   0.0000   0.0000   0.0000   0.0000   0.0000

          k =-1.0000-0.3333 0.6667 (   937 PWs)   bands (ev):

    -3.4446  -3.4446   0.5825   0.5825   2.6597   2.6597   3.9346   3.9346
     9.0833   9.0833   9.9486   9.9486  10.4617  10.4617  13.2955  13.2955

     occupation numbers 
     1.0000   1.0000   1.0000   1.0000   1.0000   1.0000   1.0000   1.0000
     0.0000   0.0000   0.0000   0.0000   0.0000   0.0000   0.0000   0.0000

          k =-1.1667-0.1667 0.5000 (   942 PWs)   bands (ev):

    -2.4603  -2.4603  -0.6166  -0.6166   2.2195   2.2195   3.4679   3.4679
     9.5889   9.5889   9.7860   9.7860  12.3342  12.3342  12.7462  12.7462

     occupation numbers 
     1.0000   1.0000   1.0000   1.0000   1.0000   1.0000   1.0000   1.0000
     0.0000   0.0000   0.0000   0.0000   0.0000   0.0000   0.0000   0.0000

          k =-1.3333 0.0000 0.3333 (   937 PWs)   bands (ev):

    -3.4446  -3.4446   0.5825   0.5825   2.6597   2.6597   3.9346   3.9346
     9.0833   9.0833   9.9486   9.9486  10.4617  10.4617  13.2955  13.2955

     occupation numbers 
     1.0000   1.0000   1.0000   1.0000   1.0000   1.0000   1.0000   1.0000
     0.0000   0.0000   0.0000   0.0000   0.0000   0.0000   0.0000   0.0000

          k =-1.5000 0.1667 0.1667 (   942 PWs)   bands (ev):

    -4.4342  -4.4342   1.7907   1.7907   4.2357   4.2357   4.4837   4.4837
     8.1939   8.1939  10.2922  10.2922  10.7563  10.7563  11.3042  11.3042

     occupation numbers 
     1.0000   1.0000   1.0000   1.0000   1.0000   1.0000   1.0000   1.0000
     0.0000   0.0000   0.0000   0.0000   0.0000   0.0000   0.0000   0.0000

          k =-0.5000-0.5000 1.1667 (   945 PWs)   bands (ev):

    -3.6282  -3.6282   0.2208   0.2208   3.1812   3.1812   4.9323   4.9323
     8.6789   8.6789  10.3533  10.3533  10.4582  10.4582  13.5205  13.5205

     occupation numbers 
     1.0000   1.0000   1.0000   1.0000   1.0000   1.0000   1.0000   1.0000
     0.0000   0.0000   0.0000   0.0000   0.0000   0.0000   0.0000   0.0000

          k =-0.6667-0.3333 1.0000 (   937 PWs)   bands (ev):

    -3.4446  -3.4446   0.5825   0.5825   2.6597   2.6597   3.9346   3.9346
     9.0833   9.0833   9.9486   9.9486  10.4617  10.4617  13.2955  13.2955

     occupation numbers 
     1.0000   1.0000   1.0000   1.0000   1.0000   1.0000   1.0000   1.0000
     0.0000   0.0000   0.0000   0.0000   0.0000   0.0000   0.0000   0.0000

          k =-0.8333-0.1667 0.8333 (   946 PWs)   bands (ev):

    -2.6662  -2.6662  -0.3391  -0.3391   2.5973   2.5973   3.6748   3.6748
     7.2938   7.2938   8.9488   8.9488  13.6795  13.6795  13.7088  13.7088

     occupation numbers 
     1.0000   1.0000   1.0000   1.0000   1.0000   1.0000   1.0000   1.0000
     0.0000   0.0000   0.0000   0.0000   0.0000   0.0000   0.0000   0.0000

          k =-1.0000 0.0000 0.6667 (   946 PWs)   bands (ev):

    -1.4728  -1.4728  -1.4682  -1.4682   2.5788   2.5788   2.5904   2.5904
     8.9772   8.9772   8.9834   8.9834  12.9876  12.9876  12.9981  12.9981

     occupation numbers 
     1.0000   1.0000   1.0000   1.0000   1.0000   1.0000   1.0000   1.0000
     0.0000   0.0000   0.0000   0.0000   0.0000   0.0000   0.0000   0.0000

          k =-1.1667 0.1667 0.5000 (   942 PWs)   bands (ev):

    -2.4603  -2.4603  -0.6166  -0.6166   2.2195   2.2195   3.4679   3.4679
     9.5889   9.5889   9.7860   9.7860  12.3342  12.3342  12.7462  12.7462

     occupation numbers 
     1.0000   1.0000   1.0000   1.0000   1.0000   1.0000   1.0000   1.0000
     0.0000   0.0000   0.0000   0.0000   0.0000   0.0000   0.0000   0.0000

          k =-1.3333 0.3333 0.3333 (   942 PWs)   bands (ev):

    -3.2434  -3.2434  -0.3782  -0.3782   3.4517   3.4517   4.4531   4.4531
     8.2707   8.2707  10.3445  10.3445  10.8521  10.8521  12.6518  12.6518

     occupation numbers 
     1.0000   1.0000   1.0000   1.0000   1.0000   1.0000   1.0000   1.0000
     0.0000   0.0000   0.0000   0.0000   0.0000   0.0000   0.0000   0.0000

          k =-0.3333-0.3333 1.3333 (   942 PWs)   bands (ev):

    -3.2434  -3.2434  -0.3782  -0.3782   3.4517   3.4517   4.4531   4.4531
     8.2707   8.2707  10.3445  10.3445  10.8521  10.8521  12.6518  12.6518

     occupation numbers 
     1.0000   1.0000   1.0000   1.0000   1.0000   1.0000   1.0000   1.0000
     0.0000   0.0000   0.0000   0.0000   0.0000   0.0000   0.0000   0.0000

          k =-0.5000-0.1667 1.1667 (   942 PWs)   bands (ev):

    -2.4603  -2.4603  -0.6166  -0.6166   2.2195   2.2195   3.4679   3.4679
     9.5889   9.5889   9.7860   9.7860  12.3342  12.3342  12.7462  12.7462

     occupation numbers 
     1.0000   1.0000   1.0000   1.0000   1.0000   1.0000   1.0000   1.0000
     0.0000   0.0000   0.0000   0.0000   0.0000   0.0000   0.0000   0.0000

          k =-0.6667 0.0000 1.0000 (   946 PWs)   bands (ev):

    -1.4728  -1.4728  -1.4682  -1.4682   2.5788   2.5788   2.5904   2.5904
     8.9772   8.9772   8.9834   8.9834  12.9876  12.9876  12.9981  12.9981

     occupation numbers 
     1.0000   1.0000   1.0000   1.0000   1.0000   1.0000   1.0000   1.0000
     0.0000   0.0000   0.0000   0.0000   0.0000   0.0000   0.0000   0.0000

          k =-0.8333 0.1667 0.8333 (   946 PWs)   bands (ev):

    -2.6662  -2.6662  -0.3391  -0.3391   2.5973   2.5973   3.6748   3.6748
     7.2938   7.2938   8.9488   8.9488  13.6795  13.6795  13.7088  13.7088

     occupation numbers 
     1.0000   1.0000   1.0000   1.0000   1.0000   1.0000   1.0000   1.0000
     0.0000   0.0000   0.0000   0.0000   0.0000   0.0000   0.0000   0.0000

          k =-1.0000 0.3333 0.6667 (   937 PWs)   bands (ev):

    -3.4446  -3.4446   0.5825   0.5825   2.6597   2.6597   3.9346   3.9346
     9.0833   9.0833   9.9486   9.9486  10.4617  10.4617  13.2955  13.2955

     occupation numbers 
     1.0000   1.0000   1.0000   1.0000   1.0000   1.0000   1.0000   1.0000
     0.0000   0.0000   0.0000   0.0000   0.0000   0.0000   0.0000   0.0000

          k =-1.1667 0.5000 0.5000 (   945 PWs)   bands (ev):

    -3.6282  -3.6282   0.2208   0.2208   3.1812   3.1812   4.9323   4.9323
     8.6789   8.6789  10.3533  10.3533  10.4582  10.4582  13.5205  13.5205

     occupation numbers 
     1.0000   1.0000   1.0000   1.0000   1.0000   1.0000   1.0000   1.0000
     0.0000   0.0000   0.0000   0.0000   0.0000   0.0000   0.0000   0.0000

          k =-0.1667-0.1667 1.5000 (   942 PWs)   bands (ev):

    -4.4342  -4.4342   1.7907   1.7907   4.2357   4.2357   4.4837   4.4837
     8.1939   8.1939  10.2922  10.2922  10.7563  10.7563  11.3042  11.3042

     occupation numbers 
     1.0000   1.0000   1.0000   1.0000   1.0000   1.0000   1.0000   1.0000
     0.0000   0.0000   0.0000   0.0000   0.0000   0.0000   0.0000   0.0000

          k =-0.3333 0.0000 1.3333 (   937 PWs)   bands (ev):

    -3.4446  -3.4446   0.5825   0.5825   2.6597   2.6597   3.9346   3.9346
     9.0833   9.0833   9.9486   9.9486  10.4617  10.4617  13.2955  13.2955

     occupation numbers 
     1.0000   1.0000   1.0000   1.0000   1.0000   1.0000   1.0000   1.0000
     0.0000   0.0000   0.0000   0.0000   0.0000   0.0000   0.0000   0.0000

          k =-0.5000 0.1667 1.1667 (   942 PWs)   bands (ev):

    -2.4603  -2.4603  -0.6166  -0.6166   2.2195   2.2195   3.4679   3.4679
     9.5889   9.5889   9.7860   9.7860  12.3342  12.3342  12.7462  12.7462

     occupation numbers 
     1.0000   1.0000   1.0000   1.0000   1.0000   1.0000   1.0000   1.0000
     0.0000   0.0000   0.0000   0.0000   0.0000   0.0000   0.0000   0.0000

          k =-0.6667 0.3333 1.0000 (   937 PWs)   bands (ev):

    -3.4446  -3.4446   0.5825   0.5825   2.6597   2.6597   3.9346   3.9346
     9.0833   9.0833   9.9486   9.9486  10.4617  10.4617  13.2955  13.2955

     occupation numbers 
     1.0000   1.0000   1.0000   1.0000   1.0000   1.0000   1.0000   1.0000
     0.0000   0.0000   0.0000   0.0000   0.0000   0.0000   0.0000   0.0000

          k =-0.8333 0.5000 0.8333 (   942 PWs)   bands (ev):

    -4.4342  -4.4342   1.7907   1.7907   4.2357   4.2357   4.4837   4.4837
     8.1939   8.1939  10.2922  10.2922  10.7563  10.7563  11.3042  11.3042

     occupation numbers 
     1.0000   1.0000   1.0000   1.0000   1.0000   1.0000   1.0000   1.0000
     0.0000   0.0000   0.0000   0.0000   0.0000   0.0000   0.0000   0.0000

          k =-1.0000 0.6667 0.6667 (   935 PWs)   bands (ev):

    -4.7841  -4.7841   2.5098   2.5098   3.8167   3.8167   5.6656   5.6656
     9.2636   9.2636   9.7839   9.7839  10.0797  10.0797  11.8919  11.8919

     occupation numbers 
     1.0000   1.0000   1.0000   1.0000   1.0000   1.0000   1.0000   1.0000
     0.0000   0.0000   0.0000   0.0000   0.0000   0.0000   0.0000   0.0000

          k = 0.0000 0.0000 1.6667 (   941 PWs)   bands (ev):

    -5.2492  -5.2492   4.1890   4.1890   5.0302   5.0302   5.0437   5.0437
     7.9322   7.9322  10.5241  10.5241  10.5707  10.5707  10.5756  10.5756

     occupation numbers 
     1.0000   1.0000   1.0000   1.0000   1.0000   1.0000   1.0000   1.0000
     0.0000   0.0000   0.0000   0.0000   0.0000   0.0000   0.0000   0.0000

          k =-0.1667 0.1667 1.5000 (   942 PWs)   bands (ev):

    -4.4342  -4.4342   1.7907   1.7907   4.2357   4.2357   4.4837   4.4837
     8.1939   8.1939  10.2922  10.2922  10.7563  10.7563  11.3042  11.3042

     occupation numbers 
     1.0000   1.0000   1.0000   1.0000   1.0000   1.0000   1.0000   1.0000
     0.0000   0.0000   0.0000   0.0000   0.0000   0.0000   0.0000   0.0000

          k =-0.3333 0.3333 1.3333 (   942 PWs)   bands (ev):

    -3.2434  -3.2434  -0.3782  -0.3782   3.4517   3.4517   4.4531   4.4531
     8.2707   8.2707  10.3445  10.3445  10.8521  10.8521  12.6518  12.6518

     occupation numbers 
     1.0000   1.0000   1.0000   1.0000   1.0000   1.0000   1.0000   1.0000
     0.0000   0.0000   0.0000   0.0000   0.0000   0.0000   0.0000   0.0000

          k =-0.5000 0.5000 1.1667 (   945 PWs)   bands (ev):

    -3.6282  -3.6282   0.2208   0.2208   3.1812   3.1812   4.9323   4.9323
     8.6789   8.6789  10.3533  10.3533  10.4582  10.4582  13.5205  13.5205

     occupation numbers 
     1.0000   1.0000   1.0000   1.0000   1.0000   1.0000   1.0000   1.0000
     0.0000   0.0000   0.0000   0.0000   0.0000   0.0000   0.0000   0.0000

          k =-0.6667 0.6667 1.0000 (   935 PWs)   bands (ev):

    -4.7841  -4.7841   2.5098   2.5098   3.8167   3.8167   5.6656   5.6656
     9.2636   9.2636   9.7839   9.7839  10.0797  10.0797  11.8919  11.8919

     occupation numbers 
     1.0000   1.0000   1.0000   1.0000   1.0000   1.0000   1.0000   1.0000
     0.0000   0.0000   0.0000   0.0000   0.0000   0.0000   0.0000   0.0000

          k =-0.8333 0.8333 0.8333 (   923 PWs)   bands (ev):

    -5.3721  -5.3721   3.8471   3.8471   5.7648   5.7648   5.7960   5.7960
     8.5742   8.5742   9.4250   9.4250   9.4487   9.4487  11.6719  11.6719

     occupation numbers 
     1.0000   1.0000   1.0000   1.0000   1.0000   1.0000   1.0000   1.0000
     0.0000   0.0000   0.0000   0.0000   0.0000   0.0000   0.0000   0.0000

     highest occupied, lowest unoccupied level (ev):     6.2480    6.9409

     Writing output data file ./si.save/
 
     init_run     :      0.06s CPU      0.28s WALL (       1 calls)
     electrons    :      8.01s CPU      8.34s WALL (       1 calls)

     Called by init_run:
     wfcinit      :      0.00s CPU      0.00s WALL (       1 calls)
     wfcinit:atom :      0.00s CPU      0.00s WALL (       9 calls)
     wfcinit:wfcr :      0.17s CPU      0.17s WALL (       9 calls)
     potinit      :      0.02s CPU      0.05s WALL (       1 calls)
     hinit0       :      0.03s CPU      0.21s WALL (       1 calls)

     Called by electrons:
     c_bands      :      8.01s CPU      8.33s WALL (       1 calls)
     v_of_rho     :      0.02s CPU      0.02s WALL (       1 calls)
     v_h          :      0.00s CPU      0.00s WALL (       1 calls)
     v_xc         :      0.02s CPU      0.02s WALL (       1 calls)

     Called by c_bands:
     init_us_2    :      0.00s CPU      0.01s WALL (       9 calls)
     cegterg      :      5.41s CPU      5.44s WALL (      27 calls)

     Called by sum_band:

     Called by *egterg:
     cdiaghg      :      0.11s CPU      0.11s WALL (     464 calls)
     cegterg:over :      0.17s CPU      0.17s WALL (     455 calls)
     cegterg:upda :      0.10s CPU      0.10s WALL (     455 calls)
     cegterg:last :      0.17s CPU      0.18s WALL (     278 calls)
     h_psi        :      4.94s CPU      4.97s WALL (     491 calls)
     g_psi        :      0.04s CPU      0.04s WALL (     455 calls)

     Called by h_psi:
     h_psi:calbec :      0.18s CPU      0.18s WALL (     491 calls)
     vloc_psi     :      4.53s CPU      4.55s WALL (     491 calls)
     add_vuspsi   :      0.21s CPU      0.21s WALL (     491 calls)

     General routines
     calbec       :      0.18s CPU      0.18s WALL (     491 calls)
     fft          :      0.01s CPU      0.18s WALL (      14 calls)
     fftw         :      3.86s CPU      3.82s WALL (   18612 calls)
     davcio       :      0.00s CPU      0.01s WALL (      18 calls)
 
     Parallel routines
 
     PWSCF        :      8.52s CPU      9.25s WALL

 
   This run was terminated on:  18:45:30  11Jan2021            

=------------------------------------------------------------------------------=
   JOB DONE.
=------------------------------------------------------------------------------=
