 
             +---------------------------------------------------+
             |                                                   |
             |                   WANNIER90                       |
             |                                                   |
             +---------------------------------------------------+
             |                                                   |
             |        Welcome to the Maximally-Localized         |
             |        Generalized Wannier Functions code         |
             |            http://www.wannier.org                 |
             |                                                   |
             |                                                   |
             |  Wannier90 Developer Group:                       |
             |    Giovanni Pizzi    (EPFL)                       |
             |    Valerio Vitale    (Cambridge)                  |
             |    David Vanderbilt  (Rutgers University)         |
             |    Nicola Marzari    (EPFL)                       |
             |    Ivo Souza         (Universidad del Pais Vasco) |
             |    Arash A. Mostofi  (Imperial College London)    |
             |    Jonathan R. Yates (University of Oxford)       |
             |                                                   |
             |  For the full list of Wannier90 3.x authors,      |
             |  please check the code documentation and the      |
             |  README on the GitHub page of the code            |
             |                                                   |
             |                                                   |
             |  Please cite                                      |
             |                                                   |
             |  [ref] "Wannier90 as a community code:            |
             |        new features and applications",            |
             |        G. Pizzi et al., J. Phys. Cond. Matt. 32,  |
             |        165902 (2020).                             |
             |        http://doi.org/10.1088/1361-648X/ab51ff    |
             |                                                   |
             |  in any publications arising from the use of      |
             |  this code. For the method please cite            |
             |                                                   |
             |  [ref] "Maximally Localized Generalised Wannier   |
             |         Functions for Composite Energy Bands"     |
             |         N. Marzari and D. Vanderbilt              |
             |         Phys. Rev. B 56 12847 (1997)              |
             |                                                   |
             |  [ref] "Maximally Localized Wannier Functions     |
             |         for Entangled Energy Bands"               |
             |         I. Souza, N. Marzari and D. Vanderbilt    |
             |         Phys. Rev. B 65 035109 (2001)             |
             |                                                   |
             |                                                   |
             | Copyright (c) 1996-2020                           |
             |        The Wannier90 Developer Group and          |
             |        individual contributors                    |
             |                                                   |
             |      Release: 3.1.0        5th March    2020      |
             |                                                   |
             | This program is free software; you can            |
             | redistribute it and/or modify it under the terms  |
             | of the GNU General Public License as published by |
             | the Free Software Foundation; either version 2 of |
             | the License, or (at your option) any later version|
             |                                                   |
             | This program is distributed in the hope that it   |
             | will be useful, but WITHOUT ANY WARRANTY; without |
             | even the implied warranty of MERCHANTABILITY or   |
             | FITNESS FOR A PARTICULAR PURPOSE. See the GNU     |
             | General Public License for more details.          |
             |                                                   |
             | You should have received a copy of the GNU General|
             | Public License along with this program; if not,   |
             | write to the Free Software Foundation, Inc.,      |
             | 675 Mass Ave, Cambridge, MA 02139, USA.           |
             |                                                   |
             +---------------------------------------------------+
             |    Execution started on 11Jan2021 at 22:53:37     |
             +---------------------------------------------------+
 
 ******************************************************************************
 * -> Using CODATA 2006 constant values                                       *
 *    (http://physics.nist.gov/cuu/Constants/index.html)                      *
 * -> Using Bohr value from CODATA                                            *
 ******************************************************************************
 

 Wannier90 is running in LIBRARY MODE

 Setting up k-point neighbours...

 
                                    ------
                                    SYSTEM
                                    ------
 
                              Lattice Vectors (Ang)
                    a_1    -2.715208   0.000000   2.715208
                    a_2     0.000000   2.715208   2.715208
                    a_3    -2.715208   2.715208   0.000000
 
                   Unit Cell Volume:      40.03496  (Ang^3)
 
                        Reciprocal-Space Vectors (Ang^-1)
                    b_1    -1.157036  -1.157036   1.157036
                    b_2     1.157036   1.157036   1.157036
                    b_3    -1.157036   1.157036  -1.157036
  
 *----------------------------------------------------------------------------*
 |   Site       Fractional Coordinate          Cartesian Coordinate (Ang)     |
 +----------------------------------------------------------------------------+
 | Si   1   0.00000   0.00000   0.00000   |    0.00000   0.00000   0.00000    |
 | Si   2  -0.25000   0.75000  -0.25000   |    1.35760   1.35760   1.35760    |
 *----------------------------------------------------------------------------*
                                -----------
                                PROJECTIONS
                                -----------
  
 +----------------------------------------------------------------------------+
 |     Frac. Coord.   l mr  r        z-axis               x-axis          Z/a |
 +----------------------------------------------------------------------------+
 |  0.00  0.00  0.00 -3  1  1  0.000  0.000  1.000  1.000  0.000  0.000   1.0 |
 |  0.00  0.00  0.00 -3  1  1  0.000  0.000  1.000  1.000  0.000  0.000   1.0 |
 |  0.00  0.00  0.00 -3  2  1  0.000  0.000  1.000  1.000  0.000  0.000   1.0 |
 |  0.00  0.00  0.00 -3  2  1  0.000  0.000  1.000  1.000  0.000  0.000   1.0 |
 |  0.00  0.00  0.00 -3  3  1  0.000  0.000  1.000  1.000  0.000  0.000   1.0 |
 |  0.00  0.00  0.00 -3  3  1  0.000  0.000  1.000  1.000  0.000  0.000   1.0 |
 |  0.00  0.00  0.00 -3  4  1  0.000  0.000  1.000  1.000  0.000  0.000   1.0 |
 |  0.00  0.00  0.00 -3  4  1  0.000  0.000  1.000  1.000  0.000  0.000   1.0 |
 | -0.25  0.75 -0.25 -3  1  1  0.000  0.000  1.000  1.000  0.000  0.000   1.0 |
 | -0.25  0.75 -0.25 -3  1  1  0.000  0.000  1.000  1.000  0.000  0.000   1.0 |
 | -0.25  0.75 -0.25 -3  2  1  0.000  0.000  1.000  1.000  0.000  0.000   1.0 |
 | -0.25  0.75 -0.25 -3  2  1  0.000  0.000  1.000  1.000  0.000  0.000   1.0 |
 | -0.25  0.75 -0.25 -3  3  1  0.000  0.000  1.000  1.000  0.000  0.000   1.0 |
 | -0.25  0.75 -0.25 -3  3  1  0.000  0.000  1.000  1.000  0.000  0.000   1.0 |
 | -0.25  0.75 -0.25 -3  4  1  0.000  0.000  1.000  1.000  0.000  0.000   1.0 |
 | -0.25  0.75 -0.25 -3  4  1  0.000  0.000  1.000  1.000  0.000  0.000   1.0 |
 +----------------------------------------------------------------------------+
  
                                ------------
                                K-POINT GRID
                                ------------
  
             Grid size =  6 x  6 x  6      Total points =  216
  
 *----------------------------------------------------------------------------*
 | k-point      Fractional Coordinate        Cartesian Coordinate (Ang^-1)    |
 +----------------------------------------------------------------------------+
 |     1    0.00000   0.00000   0.00000   |    0.00000   0.00000   0.00000    |
 |     2    0.00000   0.00000   0.16667   |   -0.19284   0.19284  -0.19284    |
 |     3    0.00000   0.00000   0.33333   |   -0.38568   0.38568  -0.38568    |
 |     4    0.00000   0.00000   0.50000   |   -0.57852   0.57852  -0.57852    |
 |     5    0.00000   0.00000   0.66667   |   -0.77136   0.77136  -0.77136    |
 |     6    0.00000   0.00000   0.83333   |   -0.96420   0.96420  -0.96420    |
 |     7    0.00000   0.16667   0.00000   |    0.19284   0.19284   0.19284    |
 |     8    0.00000   0.16667   0.16667   |    0.00000   0.38568   0.00000    |
 |     9    0.00000   0.16667   0.33333   |   -0.19284   0.57852  -0.19284    |
 |    10    0.00000   0.16667   0.50000   |   -0.38568   0.77136  -0.38568    |
 |    11    0.00000   0.16667   0.66667   |   -0.57852   0.96420  -0.57852    |
 |    12    0.00000   0.16667   0.83333   |   -0.77136   1.15704  -0.77136    |
 |    13    0.00000   0.33333   0.00000   |    0.38568   0.38568   0.38568    |
 |    14    0.00000   0.33333   0.16667   |    0.19284   0.57852   0.19284    |
 |    15    0.00000   0.33333   0.33333   |    0.00000   0.77136   0.00000    |
 |    16    0.00000   0.33333   0.50000   |   -0.19284   0.96420  -0.19284    |
 |    17    0.00000   0.33333   0.66667   |   -0.38568   1.15704  -0.38568    |
 |    18    0.00000   0.33333   0.83333   |   -0.57852   1.34987  -0.57852    |
 |    19    0.00000   0.50000   0.00000   |    0.57852   0.57852   0.57852    |
 |    20    0.00000   0.50000   0.16667   |    0.38568   0.77136   0.38568    |
 |    21    0.00000   0.50000   0.33333   |    0.19284   0.96420   0.19284    |
 |    22    0.00000   0.50000   0.50000   |    0.00000   1.15704   0.00000    |
 |    23    0.00000   0.50000   0.66667   |   -0.19284   1.34987  -0.19284    |
 |    24    0.00000   0.50000   0.83333   |   -0.38568   1.54271  -0.38568    |
 |    25    0.00000   0.66667   0.00000   |    0.77136   0.77136   0.77136    |
 |    26    0.00000   0.66667   0.16667   |    0.57852   0.96420   0.57852    |
 |    27    0.00000   0.66667   0.33333   |    0.38568   1.15704   0.38568    |
 |    28    0.00000   0.66667   0.50000   |    0.19284   1.34987   0.19284    |
 |    29    0.00000   0.66667   0.66667   |    0.00000   1.54271   0.00000    |
 |    30    0.00000   0.66667   0.83333   |   -0.19284   1.73555  -0.19284    |
 |    31    0.00000   0.83333   0.00000   |    0.96420   0.96420   0.96420    |
 |    32    0.00000   0.83333   0.16667   |    0.77136   1.15704   0.77136    |
 |    33    0.00000   0.83333   0.33333   |    0.57852   1.34987   0.57852    |
 |    34    0.00000   0.83333   0.50000   |    0.38568   1.54271   0.38568    |
 |    35    0.00000   0.83333   0.66667   |    0.19284   1.73555   0.19284    |
 |    36    0.00000   0.83333   0.83333   |    0.00000   1.92839   0.00000    |
 |    37    0.16667   0.00000   0.00000   |   -0.19284  -0.19284   0.19284    |
 |    38    0.16667   0.00000   0.16667   |   -0.38568   0.00000   0.00000    |
 |    39    0.16667   0.00000   0.33333   |   -0.57852   0.19284  -0.19284    |
 |    40    0.16667   0.00000   0.50000   |   -0.77136   0.38568  -0.38568    |
 |    41    0.16667   0.00000   0.66667   |   -0.96420   0.57852  -0.57852    |
 |    42    0.16667   0.00000   0.83333   |   -1.15704   0.77136  -0.77136    |
 |    43    0.16667   0.16667   0.00000   |    0.00000   0.00000   0.38568    |
 |    44    0.16667   0.16667   0.16667   |   -0.19284   0.19284   0.19284    |
 |    45    0.16667   0.16667   0.33333   |   -0.38568   0.38568   0.00000    |
 |    46    0.16667   0.16667   0.50000   |   -0.57852   0.57852  -0.19284    |
 |    47    0.16667   0.16667   0.66667   |   -0.77136   0.77136  -0.38568    |
 |    48    0.16667   0.16667   0.83333   |   -0.96420   0.96420  -0.57852    |
 |    49    0.16667   0.33333   0.00000   |    0.19284   0.19284   0.57852    |
 |    50    0.16667   0.33333   0.16667   |   -0.00000   0.38568   0.38568    |
 |    51    0.16667   0.33333   0.33333   |   -0.19284   0.57852   0.19284    |
 |    52    0.16667   0.33333   0.50000   |   -0.38568   0.77136   0.00000    |
 |    53    0.16667   0.33333   0.66667   |   -0.57852   0.96420  -0.19284    |
 |    54    0.16667   0.33333   0.83333   |   -0.77136   1.15704  -0.38568    |
 |    55    0.16667   0.50000   0.00000   |    0.38568   0.38568   0.77136    |
 |    56    0.16667   0.50000   0.16667   |    0.19284   0.57852   0.57852    |
 |    57    0.16667   0.50000   0.33333   |   -0.00000   0.77136   0.38568    |
 |    58    0.16667   0.50000   0.50000   |   -0.19284   0.96420   0.19284    |
 |    59    0.16667   0.50000   0.66667   |   -0.38568   1.15704   0.00000    |
 |    60    0.16667   0.50000   0.83333   |   -0.57852   1.34987  -0.19284    |
 |    61    0.16667   0.66667   0.00000   |    0.57852   0.57852   0.96420    |
 |    62    0.16667   0.66667   0.16667   |    0.38568   0.77136   0.77136    |
 |    63    0.16667   0.66667   0.33333   |    0.19284   0.96420   0.57852    |
 |    64    0.16667   0.66667   0.50000   |    0.00000   1.15704   0.38568    |
 |    65    0.16667   0.66667   0.66667   |   -0.19284   1.34987   0.19284    |
 |    66    0.16667   0.66667   0.83333   |   -0.38568   1.54271   0.00000    |
 |    67    0.16667   0.83333   0.00000   |    0.77136   0.77136   1.15704    |
 |    68    0.16667   0.83333   0.16667   |    0.57852   0.96420   0.96420    |
 |    69    0.16667   0.83333   0.33333   |    0.38568   1.15704   0.77136    |
 |    70    0.16667   0.83333   0.50000   |    0.19284   1.34987   0.57852    |
 |    71    0.16667   0.83333   0.66667   |   -0.00000   1.54271   0.38568    |
 |    72    0.16667   0.83333   0.83333   |   -0.19284   1.73555   0.19284    |
 |    73    0.33333   0.00000   0.00000   |   -0.38568  -0.38568   0.38568    |
 |    74    0.33333   0.00000   0.16667   |   -0.57852  -0.19284   0.19284    |
 |    75    0.33333   0.00000   0.33333   |   -0.77136   0.00000   0.00000    |
 |    76    0.33333   0.00000   0.50000   |   -0.96420   0.19284  -0.19284    |
 |    77    0.33333   0.00000   0.66667   |   -1.15704   0.38568  -0.38568    |
 |    78    0.33333   0.00000   0.83333   |   -1.34987   0.57852  -0.57852    |
 |    79    0.33333   0.16667   0.00000   |   -0.19284  -0.19284   0.57852    |
 |    80    0.33333   0.16667   0.16667   |   -0.38568   0.00000   0.38568    |
 |    81    0.33333   0.16667   0.33333   |   -0.57852   0.19284   0.19284    |
 |    82    0.33333   0.16667   0.50000   |   -0.77136   0.38568   0.00000    |
 |    83    0.33333   0.16667   0.66667   |   -0.96420   0.57852  -0.19284    |
 |    84    0.33333   0.16667   0.83333   |   -1.15704   0.77136  -0.38568    |
 |    85    0.33333   0.33333   0.00000   |    0.00000   0.00000   0.77136    |
 |    86    0.33333   0.33333   0.16667   |   -0.19284   0.19284   0.57852    |
 |    87    0.33333   0.33333   0.33333   |   -0.38568   0.38568   0.38568    |
 |    88    0.33333   0.33333   0.50000   |   -0.57852   0.57852   0.19284    |
 |    89    0.33333   0.33333   0.66667   |   -0.77136   0.77136  -0.00000    |
 |    90    0.33333   0.33333   0.83333   |   -0.96420   0.96420  -0.19284    |
 |    91    0.33333   0.50000   0.00000   |    0.19284   0.19284   0.96420    |
 |    92    0.33333   0.50000   0.16667   |   -0.00000   0.38568   0.77136    |
 |    93    0.33333   0.50000   0.33333   |   -0.19284   0.57852   0.57852    |
 |    94    0.33333   0.50000   0.50000   |   -0.38568   0.77136   0.38568    |
 |    95    0.33333   0.50000   0.66667   |   -0.57852   0.96420   0.19284    |
 |    96    0.33333   0.50000   0.83333   |   -0.77136   1.15704   0.00000    |
 |    97    0.33333   0.66667   0.00000   |    0.38568   0.38568   1.15704    |
 |    98    0.33333   0.66667   0.16667   |    0.19284   0.57852   0.96420    |
 |    99    0.33333   0.66667   0.33333   |    0.00000   0.77136   0.77136    |
 |   100    0.33333   0.66667   0.50000   |   -0.19284   0.96420   0.57852    |
 |   101    0.33333   0.66667   0.66667   |   -0.38568   1.15704   0.38568    |
 |   102    0.33333   0.66667   0.83333   |   -0.57852   1.34987   0.19284    |
 |   103    0.33333   0.83333   0.00000   |    0.57852   0.57852   1.34987    |
 |   104    0.33333   0.83333   0.16667   |    0.38568   0.77136   1.15704    |
 |   105    0.33333   0.83333   0.33333   |    0.19284   0.96420   0.96420    |
 |   106    0.33333   0.83333   0.50000   |   -0.00000   1.15704   0.77136    |
 |   107    0.33333   0.83333   0.66667   |   -0.19284   1.34987   0.57852    |
 |   108    0.33333   0.83333   0.83333   |   -0.38568   1.54271   0.38568    |
 |   109    0.50000   0.00000   0.00000   |   -0.57852  -0.57852   0.57852    |
 |   110    0.50000   0.00000   0.16667   |   -0.77136  -0.38568   0.38568    |
 |   111    0.50000   0.00000   0.33333   |   -0.96420  -0.19284   0.19284    |
 |   112    0.50000   0.00000   0.50000   |   -1.15704   0.00000   0.00000    |
 |   113    0.50000   0.00000   0.66667   |   -1.34987   0.19284  -0.19284    |
 |   114    0.50000   0.00000   0.83333   |   -1.54271   0.38568  -0.38568    |
 |   115    0.50000   0.16667   0.00000   |   -0.38568  -0.38568   0.77136    |
 |   116    0.50000   0.16667   0.16667   |   -0.57852  -0.19284   0.57852    |
 |   117    0.50000   0.16667   0.33333   |   -0.77136   0.00000   0.38568    |
 |   118    0.50000   0.16667   0.50000   |   -0.96420   0.19284   0.19284    |
 |   119    0.50000   0.16667   0.66667   |   -1.15704   0.38568   0.00000    |
 |   120    0.50000   0.16667   0.83333   |   -1.34987   0.57852  -0.19284    |
 |   121    0.50000   0.33333   0.00000   |   -0.19284  -0.19284   0.96420    |
 |   122    0.50000   0.33333   0.16667   |   -0.38568   0.00000   0.77136    |
 |   123    0.50000   0.33333   0.33333   |   -0.57852   0.19284   0.57852    |
 |   124    0.50000   0.33333   0.50000   |   -0.77136   0.38568   0.38568    |
 |   125    0.50000   0.33333   0.66667   |   -0.96420   0.57852   0.19284    |
 |   126    0.50000   0.33333   0.83333   |   -1.15704   0.77136   0.00000    |
 |   127    0.50000   0.50000   0.00000   |    0.00000   0.00000   1.15704    |
 |   128    0.50000   0.50000   0.16667   |   -0.19284   0.19284   0.96420    |
 |   129    0.50000   0.50000   0.33333   |   -0.38568   0.38568   0.77136    |
 |   130    0.50000   0.50000   0.50000   |   -0.57852   0.57852   0.57852    |
 |   131    0.50000   0.50000   0.66667   |   -0.77136   0.77136   0.38568    |
 |   132    0.50000   0.50000   0.83333   |   -0.96420   0.96420   0.19284    |
 |   133    0.50000   0.66667   0.00000   |    0.19284   0.19284   1.34987    |
 |   134    0.50000   0.66667   0.16667   |    0.00000   0.38568   1.15704    |
 |   135    0.50000   0.66667   0.33333   |   -0.19284   0.57852   0.96420    |
 |   136    0.50000   0.66667   0.50000   |   -0.38568   0.77136   0.77136    |
 |   137    0.50000   0.66667   0.66667   |   -0.57852   0.96420   0.57852    |
 |   138    0.50000   0.66667   0.83333   |   -0.77136   1.15704   0.38568    |
 |   139    0.50000   0.83333   0.00000   |    0.38568   0.38568   1.54271    |
 |   140    0.50000   0.83333   0.16667   |    0.19284   0.57852   1.34987    |
 |   141    0.50000   0.83333   0.33333   |    0.00000   0.77136   1.15704    |
 |   142    0.50000   0.83333   0.50000   |   -0.19284   0.96420   0.96420    |
 |   143    0.50000   0.83333   0.66667   |   -0.38568   1.15704   0.77136    |
 |   144    0.50000   0.83333   0.83333   |   -0.57852   1.34987   0.57852    |
 |   145    0.66667   0.00000   0.00000   |   -0.77136  -0.77136   0.77136    |
 |   146    0.66667   0.00000   0.16667   |   -0.96420  -0.57852   0.57852    |
 |   147    0.66667   0.00000   0.33333   |   -1.15704  -0.38568   0.38568    |
 |   148    0.66667   0.00000   0.50000   |   -1.34987  -0.19284   0.19284    |
 |   149    0.66667   0.00000   0.66667   |   -1.54271   0.00000   0.00000    |
 |   150    0.66667   0.00000   0.83333   |   -1.73555   0.19284  -0.19284    |
 |   151    0.66667   0.16667   0.00000   |   -0.57852  -0.57852   0.96420    |
 |   152    0.66667   0.16667   0.16667   |   -0.77136  -0.38568   0.77136    |
 |   153    0.66667   0.16667   0.33333   |   -0.96420  -0.19284   0.57852    |
 |   154    0.66667   0.16667   0.50000   |   -1.15704   0.00000   0.38568    |
 |   155    0.66667   0.16667   0.66667   |   -1.34987   0.19284   0.19284    |
 |   156    0.66667   0.16667   0.83333   |   -1.54271   0.38568   0.00000    |
 |   157    0.66667   0.33333   0.00000   |   -0.38568  -0.38568   1.15704    |
 |   158    0.66667   0.33333   0.16667   |   -0.57852  -0.19284   0.96420    |
 |   159    0.66667   0.33333   0.33333   |   -0.77136  -0.00000   0.77136    |
 |   160    0.66667   0.33333   0.50000   |   -0.96420   0.19284   0.57852    |
 |   161    0.66667   0.33333   0.66667   |   -1.15704   0.38568   0.38568    |
 |   162    0.66667   0.33333   0.83333   |   -1.34987   0.57852   0.19284    |
 |   163    0.66667   0.50000   0.00000   |   -0.19284  -0.19284   1.34987    |
 |   164    0.66667   0.50000   0.16667   |   -0.38568  -0.00000   1.15704    |
 |   165    0.66667   0.50000   0.33333   |   -0.57852   0.19284   0.96420    |
 |   166    0.66667   0.50000   0.50000   |   -0.77136   0.38568   0.77136    |
 |   167    0.66667   0.50000   0.66667   |   -0.96420   0.57852   0.57852    |
 |   168    0.66667   0.50000   0.83333   |   -1.15704   0.77136   0.38568    |
 |   169    0.66667   0.66667   0.00000   |    0.00000   0.00000   1.54271    |
 |   170    0.66667   0.66667   0.16667   |   -0.19284   0.19284   1.34987    |
 |   171    0.66667   0.66667   0.33333   |   -0.38568   0.38568   1.15704    |
 |   172    0.66667   0.66667   0.50000   |   -0.57852   0.57852   0.96420    |
 |   173    0.66667   0.66667   0.66667   |   -0.77136   0.77136   0.77136    |
 |   174    0.66667   0.66667   0.83333   |   -0.96420   0.96420   0.57852    |
 |   175    0.66667   0.83333   0.00000   |    0.19284   0.19284   1.73555    |
 |   176    0.66667   0.83333   0.16667   |   -0.00000   0.38568   1.54271    |
 |   177    0.66667   0.83333   0.33333   |   -0.19284   0.57852   1.34987    |
 |   178    0.66667   0.83333   0.50000   |   -0.38568   0.77136   1.15704    |
 |   179    0.66667   0.83333   0.66667   |   -0.57852   0.96420   0.96420    |
 |   180    0.66667   0.83333   0.83333   |   -0.77136   1.15704   0.77136    |
 |   181    0.83333   0.00000   0.00000   |   -0.96420  -0.96420   0.96420    |
 |   182    0.83333   0.00000   0.16667   |   -1.15704  -0.77136   0.77136    |
 |   183    0.83333   0.00000   0.33333   |   -1.34987  -0.57852   0.57852    |
 |   184    0.83333   0.00000   0.50000   |   -1.54271  -0.38568   0.38568    |
 |   185    0.83333   0.00000   0.66667   |   -1.73555  -0.19284   0.19284    |
 |   186    0.83333   0.00000   0.83333   |   -1.92839   0.00000   0.00000    |
 |   187    0.83333   0.16667   0.00000   |   -0.77136  -0.77136   1.15704    |
 |   188    0.83333   0.16667   0.16667   |   -0.96420  -0.57852   0.96420    |
 |   189    0.83333   0.16667   0.33333   |   -1.15704  -0.38568   0.77136    |
 |   190    0.83333   0.16667   0.50000   |   -1.34987  -0.19284   0.57852    |
 |   191    0.83333   0.16667   0.66667   |   -1.54271   0.00000   0.38568    |
 |   192    0.83333   0.16667   0.83333   |   -1.73555   0.19284   0.19284    |
 |   193    0.83333   0.33333   0.00000   |   -0.57852  -0.57852   1.34987    |
 |   194    0.83333   0.33333   0.16667   |   -0.77136  -0.38568   1.15704    |
 |   195    0.83333   0.33333   0.33333   |   -0.96420  -0.19284   0.96420    |
 |   196    0.83333   0.33333   0.50000   |   -1.15704   0.00000   0.77136    |
 |   197    0.83333   0.33333   0.66667   |   -1.34987   0.19284   0.57852    |
 |   198    0.83333   0.33333   0.83333   |   -1.54271   0.38568   0.38568    |
 |   199    0.83333   0.50000   0.00000   |   -0.38568  -0.38568   1.54271    |
 |   200    0.83333   0.50000   0.16667   |   -0.57852  -0.19284   1.34987    |
 |   201    0.83333   0.50000   0.33333   |   -0.77136  -0.00000   1.15704    |
 |   202    0.83333   0.50000   0.50000   |   -0.96420   0.19284   0.96420    |
 |   203    0.83333   0.50000   0.66667   |   -1.15704   0.38568   0.77136    |
 |   204    0.83333   0.50000   0.83333   |   -1.34987   0.57852   0.57852    |
 |   205    0.83333   0.66667   0.00000   |   -0.19284  -0.19284   1.73555    |
 |   206    0.83333   0.66667   0.16667   |   -0.38568   0.00000   1.54271    |
 |   207    0.83333   0.66667   0.33333   |   -0.57852   0.19284   1.34987    |
 |   208    0.83333   0.66667   0.50000   |   -0.77136   0.38568   1.15704    |
 |   209    0.83333   0.66667   0.66667   |   -0.96420   0.57852   0.96420    |
 |   210    0.83333   0.66667   0.83333   |   -1.15704   0.77136   0.77136    |
 |   211    0.83333   0.83333   0.00000   |    0.00000   0.00000   1.92839    |
 |   212    0.83333   0.83333   0.16667   |   -0.19284   0.19284   1.73555    |
 |   213    0.83333   0.83333   0.33333   |   -0.38568   0.38568   1.54271    |
 |   214    0.83333   0.83333   0.50000   |   -0.57852   0.57852   1.34987    |
 |   215    0.83333   0.83333   0.66667   |   -0.77136   0.77136   1.15704    |
 |   216    0.83333   0.83333   0.83333   |   -0.96420   0.96420   0.96420    |
 *----------------------------------------------------------------------------*
  
  
 *---------------------------------- MAIN ------------------------------------*
 |  Number of Wannier Functions               :                16             |
 |  Number of Objective Wannier Functions     :                16             |
 |  Number of input Bloch states              :                16             |
 |  Output verbosity (1=low, 5=high)          :                 2             |
 |  Timing Level (1=low, 5=high)              :                 1             |
 |  Optimisation (0=memory, 3=speed)          :                 3             |
 |  Length Unit                               :               Ang             |
 |  Post-processing setup (write *.nnkp)      :                 T             |
 |  Using Gamma-only branch of algorithms     :                 F             |
 *----------------------------------------------------------------------------*
 *------------------------------- WANNIERISE ---------------------------------*
 |  Total number of iterations                :               300             |
 |  Number of CG steps before reset           :                 5             |
 |  Trial step length for line search         :             2.000             |
 |  Convergence tolerence                     :         0.100E-09             |
 |  Convergence window                        :                -1             |
 |  Iterations between writing output         :                 1             |
 |  Iterations between backing up to disk     :               100             |
 |  Write r^2_nm to file                      :                 F             |
 |  Write xyz WF centres to file              :                 F             |
 |  Write on-site energies <0n|H|0n> to file  :                 F             |
 |  Use guiding centre to control phases      :                 F             |
 |  Use phases for initial projections        :                 F             |
 *----------------------------------------------------------------------------*
 *-------------------------------- PLOTTING ----------------------------------*
 |  Plotting interpolated bandstructure       :                 T             |
 |   Number of K-path sections                :                 2             |
 |   Divisions along first K-path section     :               100             |
 |   Output format                            :           gnuplot             |
 |   Output mode                              :               s-k             |
 *----------------------------------------------------------------------------*
 |   K-space path sections:                                                   |
 |    From: L       0.500  0.500  0.500     To: G       0.000  0.000  0.000   |
 |    From: G       0.000  0.000  0.000     To: X       0.000  0.500  0.500   |
 *----------------------------------------------------------------------------*
 |  Plotting Hamiltonian in WF basis          :                 T             |
 *----------------------------------------------------------------------------*
 Time to read parameters        0.008 (sec)

 *---------------------------------- K-MESH ----------------------------------*
 +----------------------------------------------------------------------------+
 |                    Distance to Nearest-Neighbour Shells                    |
 |                    ------------------------------------                    |
 |          Shell             Distance (Ang^-1)          Multiplicity         |
 |          -----             -----------------          ------------         |
 |             1                   0.334007                      8            |
 |             2                   0.385679                      6            |
 |             3                   0.545432                     12            |
 |             4                   0.639575                     24            |
 |             5                   0.668015                      8            |
 |             6                   0.771357                      6            |
 |             7                   0.840567                     24            |
 |             8                   0.862403                     24            |
 |             9                   0.944716                     24            |
 |            10                   1.002022                     32            |
 |            11                   1.090864                     12            |
 |            12                   1.140852                     48            |
 |            13                   1.157036                     30            |
 |            14                   1.219623                     24            |
 |            15                   1.264532                     24            |
 |            16                   1.279151                     24            |
 |            17                   1.336030                      8            |
 |            18                   1.377148                     48            |
 |            19                   1.390584                     24            |
 |            20                   1.443077                     48            |
 |            21                   1.481227                     72            |
 |            22                   1.542714                      6            |
 |            23                   1.578457                     24            |
 |            24                   1.590193                     48            |
 |            25                   1.636295                     36            |
 |            26                   1.670037                     56            |
 |            27                   1.681134                     24            |
 |            28                   1.724807                     24            |
 |            29                   1.756849                     72            |
 |            30                   1.767401                     48            |
 |            31                   1.808993                     24            |
 |            32                   1.839569                     48            |
 |            33                   1.889431                     24            |
 |            34                   1.918726                     72            |
 |            35                   1.928393                     30            |
 |            36                   1.966582                     72            |
 +----------------------------------------------------------------------------+
 | The b-vectors are chosen automatically                                     |
 | Shell:  1 w_b    3.3613911      (Ang^2)                                    |
 | The following shells are used:   1                                         |
 +----------------------------------------------------------------------------+
 |                        Shell   # Nearest-Neighbours                        |
 |                        -----   --------------------                        |
 |                          1               8                                 |
 +----------------------------------------------------------------------------+
 | Completeness relation is fully satisfied [Eq. (B1), PRB 56, 12847 (1997)]  |
 +----------------------------------------------------------------------------+
 |                  b_k Vectors (Ang^-1) and Weights (Ang^2)                  |
 |                  ----------------------------------------                  |
 |            No.         b_k(x)      b_k(y)      b_k(z)        w_b           |
 |            ---        --------------------------------     --------        |
 |             1        -0.192839    0.192839   -0.192839     3.361391        |
 |             2         0.192839    0.192839    0.192839     3.361391        |
 |             3        -0.192839   -0.192839    0.192839     3.361391        |
 |             4        -0.192839    0.192839    0.192839     3.361391        |
 |             5         0.192839   -0.192839    0.192839     3.361391        |
 |             6        -0.192839   -0.192839   -0.192839     3.361391        |
 |             7         0.192839    0.192839   -0.192839     3.361391        |
 |             8         0.192839   -0.192839   -0.192839     3.361391        |
 +----------------------------------------------------------------------------+
 |                           b_k Directions (Ang^-1)                          |
 |                           -----------------------                          |
 |            No.           x           y           z                         |
 |            ---        --------------------------------                     |
 |             1        -0.192839    0.192839   -0.192839                     |
 |             2         0.192839    0.192839    0.192839                     |
 |             3        -0.192839   -0.192839    0.192839                     |
 |             4        -0.192839    0.192839    0.192839                     |
 +----------------------------------------------------------------------------+
  
 Time to write kmesh            0.161 (sec)

 si.nnkp written.
 Time to write kmesh            0.161 (sec)

 Finished setting up k-point neighbours.

 Exiting wannier_setup in wannier90 22:53:38 

 Resuming Wannier90 at 22:53:45 

 
                                    ------
                                    SYSTEM
                                    ------
 
                              Lattice Vectors (Ang)
                    a_1    -2.715208   0.000000   2.715208
                    a_2     0.000000   2.715208   2.715208
                    a_3    -2.715208   2.715208   0.000000
 
                   Unit Cell Volume:      40.03496  (Ang^3)
 
                        Reciprocal-Space Vectors (Ang^-1)
                    b_1    -1.157036  -1.157036   1.157036
                    b_2     1.157036   1.157036   1.157036
                    b_3    -1.157036   1.157036  -1.157036
  
 *----------------------------------------------------------------------------*
 |   Site       Fractional Coordinate          Cartesian Coordinate (Ang)     |
 +----------------------------------------------------------------------------+
 | Si   1   0.00000   0.00000   0.00000   |    0.00000   0.00000   0.00000    |
 | Si   2  -0.25000   0.75000  -0.25000   |    1.35760   1.35760   1.35760    |
 *----------------------------------------------------------------------------*
                                -----------
                                PROJECTIONS
                                -----------
  
 +----------------------------------------------------------------------------+
 |     Frac. Coord.   l mr  r        z-axis               x-axis          Z/a |
 +----------------------------------------------------------------------------+
 |  0.00  0.00  0.00 -3  1  1  0.000  0.000  1.000  1.000  0.000  0.000   1.0 |
 |  0.00  0.00  0.00 -3  1  1  0.000  0.000  1.000  1.000  0.000  0.000   1.0 |
 |  0.00  0.00  0.00 -3  2  1  0.000  0.000  1.000  1.000  0.000  0.000   1.0 |
 |  0.00  0.00  0.00 -3  2  1  0.000  0.000  1.000  1.000  0.000  0.000   1.0 |
 |  0.00  0.00  0.00 -3  3  1  0.000  0.000  1.000  1.000  0.000  0.000   1.0 |
 |  0.00  0.00  0.00 -3  3  1  0.000  0.000  1.000  1.000  0.000  0.000   1.0 |
 |  0.00  0.00  0.00 -3  4  1  0.000  0.000  1.000  1.000  0.000  0.000   1.0 |
 |  0.00  0.00  0.00 -3  4  1  0.000  0.000  1.000  1.000  0.000  0.000   1.0 |
 | -0.25  0.75 -0.25 -3  1  1  0.000  0.000  1.000  1.000  0.000  0.000   1.0 |
 | -0.25  0.75 -0.25 -3  1  1  0.000  0.000  1.000  1.000  0.000  0.000   1.0 |
 | -0.25  0.75 -0.25 -3  2  1  0.000  0.000  1.000  1.000  0.000  0.000   1.0 |
 | -0.25  0.75 -0.25 -3  2  1  0.000  0.000  1.000  1.000  0.000  0.000   1.0 |
 | -0.25  0.75 -0.25 -3  3  1  0.000  0.000  1.000  1.000  0.000  0.000   1.0 |
 | -0.25  0.75 -0.25 -3  3  1  0.000  0.000  1.000  1.000  0.000  0.000   1.0 |
 | -0.25  0.75 -0.25 -3  4  1  0.000  0.000  1.000  1.000  0.000  0.000   1.0 |
 | -0.25  0.75 -0.25 -3  4  1  0.000  0.000  1.000  1.000  0.000  0.000   1.0 |
 +----------------------------------------------------------------------------+
  
                                ------------
                                K-POINT GRID
                                ------------
  
             Grid size =  6 x  6 x  6      Total points =  216
  
 *----------------------------------------------------------------------------*
 | k-point      Fractional Coordinate        Cartesian Coordinate (Ang^-1)    |
 +----------------------------------------------------------------------------+
 |     1    0.00000   0.00000   0.00000   |    0.00000   0.00000   0.00000    |
 |     2    0.00000   0.00000   0.16667   |   -0.19284   0.19284  -0.19284    |
 |     3    0.00000   0.00000   0.33333   |   -0.38568   0.38568  -0.38568    |
 |     4    0.00000   0.00000   0.50000   |   -0.57852   0.57852  -0.57852    |
 |     5    0.00000   0.00000   0.66667   |   -0.77136   0.77136  -0.77136    |
 |     6    0.00000   0.00000   0.83333   |   -0.96420   0.96420  -0.96420    |
 |     7    0.00000   0.16667   0.00000   |    0.19284   0.19284   0.19284    |
 |     8    0.00000   0.16667   0.16667   |    0.00000   0.38568   0.00000    |
 |     9    0.00000   0.16667   0.33333   |   -0.19284   0.57852  -0.19284    |
 |    10    0.00000   0.16667   0.50000   |   -0.38568   0.77136  -0.38568    |
 |    11    0.00000   0.16667   0.66667   |   -0.57852   0.96420  -0.57852    |
 |    12    0.00000   0.16667   0.83333   |   -0.77136   1.15704  -0.77136    |
 |    13    0.00000   0.33333   0.00000   |    0.38568   0.38568   0.38568    |
 |    14    0.00000   0.33333   0.16667   |    0.19284   0.57852   0.19284    |
 |    15    0.00000   0.33333   0.33333   |    0.00000   0.77136   0.00000    |
 |    16    0.00000   0.33333   0.50000   |   -0.19284   0.96420  -0.19284    |
 |    17    0.00000   0.33333   0.66667   |   -0.38568   1.15704  -0.38568    |
 |    18    0.00000   0.33333   0.83333   |   -0.57852   1.34987  -0.57852    |
 |    19    0.00000   0.50000   0.00000   |    0.57852   0.57852   0.57852    |
 |    20    0.00000   0.50000   0.16667   |    0.38568   0.77136   0.38568    |
 |    21    0.00000   0.50000   0.33333   |    0.19284   0.96420   0.19284    |
 |    22    0.00000   0.50000   0.50000   |    0.00000   1.15704   0.00000    |
 |    23    0.00000   0.50000   0.66667   |   -0.19284   1.34987  -0.19284    |
 |    24    0.00000   0.50000   0.83333   |   -0.38568   1.54271  -0.38568    |
 |    25    0.00000   0.66667   0.00000   |    0.77136   0.77136   0.77136    |
 |    26    0.00000   0.66667   0.16667   |    0.57852   0.96420   0.57852    |
 |    27    0.00000   0.66667   0.33333   |    0.38568   1.15704   0.38568    |
 |    28    0.00000   0.66667   0.50000   |    0.19284   1.34987   0.19284    |
 |    29    0.00000   0.66667   0.66667   |    0.00000   1.54271   0.00000    |
 |    30    0.00000   0.66667   0.83333   |   -0.19284   1.73555  -0.19284    |
 |    31    0.00000   0.83333   0.00000   |    0.96420   0.96420   0.96420    |
 |    32    0.00000   0.83333   0.16667   |    0.77136   1.15704   0.77136    |
 |    33    0.00000   0.83333   0.33333   |    0.57852   1.34987   0.57852    |
 |    34    0.00000   0.83333   0.50000   |    0.38568   1.54271   0.38568    |
 |    35    0.00000   0.83333   0.66667   |    0.19284   1.73555   0.19284    |
 |    36    0.00000   0.83333   0.83333   |    0.00000   1.92839   0.00000    |
 |    37    0.16667   0.00000   0.00000   |   -0.19284  -0.19284   0.19284    |
 |    38    0.16667   0.00000   0.16667   |   -0.38568   0.00000   0.00000    |
 |    39    0.16667   0.00000   0.33333   |   -0.57852   0.19284  -0.19284    |
 |    40    0.16667   0.00000   0.50000   |   -0.77136   0.38568  -0.38568    |
 |    41    0.16667   0.00000   0.66667   |   -0.96420   0.57852  -0.57852    |
 |    42    0.16667   0.00000   0.83333   |   -1.15704   0.77136  -0.77136    |
 |    43    0.16667   0.16667   0.00000   |    0.00000   0.00000   0.38568    |
 |    44    0.16667   0.16667   0.16667   |   -0.19284   0.19284   0.19284    |
 |    45    0.16667   0.16667   0.33333   |   -0.38568   0.38568   0.00000    |
 |    46    0.16667   0.16667   0.50000   |   -0.57852   0.57852  -0.19284    |
 |    47    0.16667   0.16667   0.66667   |   -0.77136   0.77136  -0.38568    |
 |    48    0.16667   0.16667   0.83333   |   -0.96420   0.96420  -0.57852    |
 |    49    0.16667   0.33333   0.00000   |    0.19284   0.19284   0.57852    |
 |    50    0.16667   0.33333   0.16667   |   -0.00000   0.38568   0.38568    |
 |    51    0.16667   0.33333   0.33333   |   -0.19284   0.57852   0.19284    |
 |    52    0.16667   0.33333   0.50000   |   -0.38568   0.77136   0.00000    |
 |    53    0.16667   0.33333   0.66667   |   -0.57852   0.96420  -0.19284    |
 |    54    0.16667   0.33333   0.83333   |   -0.77136   1.15704  -0.38568    |
 |    55    0.16667   0.50000   0.00000   |    0.38568   0.38568   0.77136    |
 |    56    0.16667   0.50000   0.16667   |    0.19284   0.57852   0.57852    |
 |    57    0.16667   0.50000   0.33333   |   -0.00000   0.77136   0.38568    |
 |    58    0.16667   0.50000   0.50000   |   -0.19284   0.96420   0.19284    |
 |    59    0.16667   0.50000   0.66667   |   -0.38568   1.15704   0.00000    |
 |    60    0.16667   0.50000   0.83333   |   -0.57852   1.34987  -0.19284    |
 |    61    0.16667   0.66667   0.00000   |    0.57852   0.57852   0.96420    |
 |    62    0.16667   0.66667   0.16667   |    0.38568   0.77136   0.77136    |
 |    63    0.16667   0.66667   0.33333   |    0.19284   0.96420   0.57852    |
 |    64    0.16667   0.66667   0.50000   |    0.00000   1.15704   0.38568    |
 |    65    0.16667   0.66667   0.66667   |   -0.19284   1.34987   0.19284    |
 |    66    0.16667   0.66667   0.83333   |   -0.38568   1.54271   0.00000    |
 |    67    0.16667   0.83333   0.00000   |    0.77136   0.77136   1.15704    |
 |    68    0.16667   0.83333   0.16667   |    0.57852   0.96420   0.96420    |
 |    69    0.16667   0.83333   0.33333   |    0.38568   1.15704   0.77136    |
 |    70    0.16667   0.83333   0.50000   |    0.19284   1.34987   0.57852    |
 |    71    0.16667   0.83333   0.66667   |   -0.00000   1.54271   0.38568    |
 |    72    0.16667   0.83333   0.83333   |   -0.19284   1.73555   0.19284    |
 |    73    0.33333   0.00000   0.00000   |   -0.38568  -0.38568   0.38568    |
 |    74    0.33333   0.00000   0.16667   |   -0.57852  -0.19284   0.19284    |
 |    75    0.33333   0.00000   0.33333   |   -0.77136   0.00000   0.00000    |
 |    76    0.33333   0.00000   0.50000   |   -0.96420   0.19284  -0.19284    |
 |    77    0.33333   0.00000   0.66667   |   -1.15704   0.38568  -0.38568    |
 |    78    0.33333   0.00000   0.83333   |   -1.34987   0.57852  -0.57852    |
 |    79    0.33333   0.16667   0.00000   |   -0.19284  -0.19284   0.57852    |
 |    80    0.33333   0.16667   0.16667   |   -0.38568   0.00000   0.38568    |
 |    81    0.33333   0.16667   0.33333   |   -0.57852   0.19284   0.19284    |
 |    82    0.33333   0.16667   0.50000   |   -0.77136   0.38568   0.00000    |
 |    83    0.33333   0.16667   0.66667   |   -0.96420   0.57852  -0.19284    |
 |    84    0.33333   0.16667   0.83333   |   -1.15704   0.77136  -0.38568    |
 |    85    0.33333   0.33333   0.00000   |    0.00000   0.00000   0.77136    |
 |    86    0.33333   0.33333   0.16667   |   -0.19284   0.19284   0.57852    |
 |    87    0.33333   0.33333   0.33333   |   -0.38568   0.38568   0.38568    |
 |    88    0.33333   0.33333   0.50000   |   -0.57852   0.57852   0.19284    |
 |    89    0.33333   0.33333   0.66667   |   -0.77136   0.77136  -0.00000    |
 |    90    0.33333   0.33333   0.83333   |   -0.96420   0.96420  -0.19284    |
 |    91    0.33333   0.50000   0.00000   |    0.19284   0.19284   0.96420    |
 |    92    0.33333   0.50000   0.16667   |   -0.00000   0.38568   0.77136    |
 |    93    0.33333   0.50000   0.33333   |   -0.19284   0.57852   0.57852    |
 |    94    0.33333   0.50000   0.50000   |   -0.38568   0.77136   0.38568    |
 |    95    0.33333   0.50000   0.66667   |   -0.57852   0.96420   0.19284    |
 |    96    0.33333   0.50000   0.83333   |   -0.77136   1.15704   0.00000    |
 |    97    0.33333   0.66667   0.00000   |    0.38568   0.38568   1.15704    |
 |    98    0.33333   0.66667   0.16667   |    0.19284   0.57852   0.96420    |
 |    99    0.33333   0.66667   0.33333   |    0.00000   0.77136   0.77136    |
 |   100    0.33333   0.66667   0.50000   |   -0.19284   0.96420   0.57852    |
 |   101    0.33333   0.66667   0.66667   |   -0.38568   1.15704   0.38568    |
 |   102    0.33333   0.66667   0.83333   |   -0.57852   1.34987   0.19284    |
 |   103    0.33333   0.83333   0.00000   |    0.57852   0.57852   1.34987    |
 |   104    0.33333   0.83333   0.16667   |    0.38568   0.77136   1.15704    |
 |   105    0.33333   0.83333   0.33333   |    0.19284   0.96420   0.96420    |
 |   106    0.33333   0.83333   0.50000   |   -0.00000   1.15704   0.77136    |
 |   107    0.33333   0.83333   0.66667   |   -0.19284   1.34987   0.57852    |
 |   108    0.33333   0.83333   0.83333   |   -0.38568   1.54271   0.38568    |
 |   109    0.50000   0.00000   0.00000   |   -0.57852  -0.57852   0.57852    |
 |   110    0.50000   0.00000   0.16667   |   -0.77136  -0.38568   0.38568    |
 |   111    0.50000   0.00000   0.33333   |   -0.96420  -0.19284   0.19284    |
 |   112    0.50000   0.00000   0.50000   |   -1.15704   0.00000   0.00000    |
 |   113    0.50000   0.00000   0.66667   |   -1.34987   0.19284  -0.19284    |
 |   114    0.50000   0.00000   0.83333   |   -1.54271   0.38568  -0.38568    |
 |   115    0.50000   0.16667   0.00000   |   -0.38568  -0.38568   0.77136    |
 |   116    0.50000   0.16667   0.16667   |   -0.57852  -0.19284   0.57852    |
 |   117    0.50000   0.16667   0.33333   |   -0.77136   0.00000   0.38568    |
 |   118    0.50000   0.16667   0.50000   |   -0.96420   0.19284   0.19284    |
 |   119    0.50000   0.16667   0.66667   |   -1.15704   0.38568   0.00000    |
 |   120    0.50000   0.16667   0.83333   |   -1.34987   0.57852  -0.19284    |
 |   121    0.50000   0.33333   0.00000   |   -0.19284  -0.19284   0.96420    |
 |   122    0.50000   0.33333   0.16667   |   -0.38568   0.00000   0.77136    |
 |   123    0.50000   0.33333   0.33333   |   -0.57852   0.19284   0.57852    |
 |   124    0.50000   0.33333   0.50000   |   -0.77136   0.38568   0.38568    |
 |   125    0.50000   0.33333   0.66667   |   -0.96420   0.57852   0.19284    |
 |   126    0.50000   0.33333   0.83333   |   -1.15704   0.77136   0.00000    |
 |   127    0.50000   0.50000   0.00000   |    0.00000   0.00000   1.15704    |
 |   128    0.50000   0.50000   0.16667   |   -0.19284   0.19284   0.96420    |
 |   129    0.50000   0.50000   0.33333   |   -0.38568   0.38568   0.77136    |
 |   130    0.50000   0.50000   0.50000   |   -0.57852   0.57852   0.57852    |
 |   131    0.50000   0.50000   0.66667   |   -0.77136   0.77136   0.38568    |
 |   132    0.50000   0.50000   0.83333   |   -0.96420   0.96420   0.19284    |
 |   133    0.50000   0.66667   0.00000   |    0.19284   0.19284   1.34987    |
 |   134    0.50000   0.66667   0.16667   |    0.00000   0.38568   1.15704    |
 |   135    0.50000   0.66667   0.33333   |   -0.19284   0.57852   0.96420    |
 |   136    0.50000   0.66667   0.50000   |   -0.38568   0.77136   0.77136    |
 |   137    0.50000   0.66667   0.66667   |   -0.57852   0.96420   0.57852    |
 |   138    0.50000   0.66667   0.83333   |   -0.77136   1.15704   0.38568    |
 |   139    0.50000   0.83333   0.00000   |    0.38568   0.38568   1.54271    |
 |   140    0.50000   0.83333   0.16667   |    0.19284   0.57852   1.34987    |
 |   141    0.50000   0.83333   0.33333   |    0.00000   0.77136   1.15704    |
 |   142    0.50000   0.83333   0.50000   |   -0.19284   0.96420   0.96420    |
 |   143    0.50000   0.83333   0.66667   |   -0.38568   1.15704   0.77136    |
 |   144    0.50000   0.83333   0.83333   |   -0.57852   1.34987   0.57852    |
 |   145    0.66667   0.00000   0.00000   |   -0.77136  -0.77136   0.77136    |
 |   146    0.66667   0.00000   0.16667   |   -0.96420  -0.57852   0.57852    |
 |   147    0.66667   0.00000   0.33333   |   -1.15704  -0.38568   0.38568    |
 |   148    0.66667   0.00000   0.50000   |   -1.34987  -0.19284   0.19284    |
 |   149    0.66667   0.00000   0.66667   |   -1.54271   0.00000   0.00000    |
 |   150    0.66667   0.00000   0.83333   |   -1.73555   0.19284  -0.19284    |
 |   151    0.66667   0.16667   0.00000   |   -0.57852  -0.57852   0.96420    |
 |   152    0.66667   0.16667   0.16667   |   -0.77136  -0.38568   0.77136    |
 |   153    0.66667   0.16667   0.33333   |   -0.96420  -0.19284   0.57852    |
 |   154    0.66667   0.16667   0.50000   |   -1.15704   0.00000   0.38568    |
 |   155    0.66667   0.16667   0.66667   |   -1.34987   0.19284   0.19284    |
 |   156    0.66667   0.16667   0.83333   |   -1.54271   0.38568   0.00000    |
 |   157    0.66667   0.33333   0.00000   |   -0.38568  -0.38568   1.15704    |
 |   158    0.66667   0.33333   0.16667   |   -0.57852  -0.19284   0.96420    |
 |   159    0.66667   0.33333   0.33333   |   -0.77136  -0.00000   0.77136    |
 |   160    0.66667   0.33333   0.50000   |   -0.96420   0.19284   0.57852    |
 |   161    0.66667   0.33333   0.66667   |   -1.15704   0.38568   0.38568    |
 |   162    0.66667   0.33333   0.83333   |   -1.34987   0.57852   0.19284    |
 |   163    0.66667   0.50000   0.00000   |   -0.19284  -0.19284   1.34987    |
 |   164    0.66667   0.50000   0.16667   |   -0.38568  -0.00000   1.15704    |
 |   165    0.66667   0.50000   0.33333   |   -0.57852   0.19284   0.96420    |
 |   166    0.66667   0.50000   0.50000   |   -0.77136   0.38568   0.77136    |
 |   167    0.66667   0.50000   0.66667   |   -0.96420   0.57852   0.57852    |
 |   168    0.66667   0.50000   0.83333   |   -1.15704   0.77136   0.38568    |
 |   169    0.66667   0.66667   0.00000   |    0.00000   0.00000   1.54271    |
 |   170    0.66667   0.66667   0.16667   |   -0.19284   0.19284   1.34987    |
 |   171    0.66667   0.66667   0.33333   |   -0.38568   0.38568   1.15704    |
 |   172    0.66667   0.66667   0.50000   |   -0.57852   0.57852   0.96420    |
 |   173    0.66667   0.66667   0.66667   |   -0.77136   0.77136   0.77136    |
 |   174    0.66667   0.66667   0.83333   |   -0.96420   0.96420   0.57852    |
 |   175    0.66667   0.83333   0.00000   |    0.19284   0.19284   1.73555    |
 |   176    0.66667   0.83333   0.16667   |   -0.00000   0.38568   1.54271    |
 |   177    0.66667   0.83333   0.33333   |   -0.19284   0.57852   1.34987    |
 |   178    0.66667   0.83333   0.50000   |   -0.38568   0.77136   1.15704    |
 |   179    0.66667   0.83333   0.66667   |   -0.57852   0.96420   0.96420    |
 |   180    0.66667   0.83333   0.83333   |   -0.77136   1.15704   0.77136    |
 |   181    0.83333   0.00000   0.00000   |   -0.96420  -0.96420   0.96420    |
 |   182    0.83333   0.00000   0.16667   |   -1.15704  -0.77136   0.77136    |
 |   183    0.83333   0.00000   0.33333   |   -1.34987  -0.57852   0.57852    |
 |   184    0.83333   0.00000   0.50000   |   -1.54271  -0.38568   0.38568    |
 |   185    0.83333   0.00000   0.66667   |   -1.73555  -0.19284   0.19284    |
 |   186    0.83333   0.00000   0.83333   |   -1.92839   0.00000   0.00000    |
 |   187    0.83333   0.16667   0.00000   |   -0.77136  -0.77136   1.15704    |
 |   188    0.83333   0.16667   0.16667   |   -0.96420  -0.57852   0.96420    |
 |   189    0.83333   0.16667   0.33333   |   -1.15704  -0.38568   0.77136    |
 |   190    0.83333   0.16667   0.50000   |   -1.34987  -0.19284   0.57852    |
 |   191    0.83333   0.16667   0.66667   |   -1.54271   0.00000   0.38568    |
 |   192    0.83333   0.16667   0.83333   |   -1.73555   0.19284   0.19284    |
 |   193    0.83333   0.33333   0.00000   |   -0.57852  -0.57852   1.34987    |
 |   194    0.83333   0.33333   0.16667   |   -0.77136  -0.38568   1.15704    |
 |   195    0.83333   0.33333   0.33333   |   -0.96420  -0.19284   0.96420    |
 |   196    0.83333   0.33333   0.50000   |   -1.15704   0.00000   0.77136    |
 |   197    0.83333   0.33333   0.66667   |   -1.34987   0.19284   0.57852    |
 |   198    0.83333   0.33333   0.83333   |   -1.54271   0.38568   0.38568    |
 |   199    0.83333   0.50000   0.00000   |   -0.38568  -0.38568   1.54271    |
 |   200    0.83333   0.50000   0.16667   |   -0.57852  -0.19284   1.34987    |
 |   201    0.83333   0.50000   0.33333   |   -0.77136  -0.00000   1.15704    |
 |   202    0.83333   0.50000   0.50000   |   -0.96420   0.19284   0.96420    |
 |   203    0.83333   0.50000   0.66667   |   -1.15704   0.38568   0.77136    |
 |   204    0.83333   0.50000   0.83333   |   -1.34987   0.57852   0.57852    |
 |   205    0.83333   0.66667   0.00000   |   -0.19284  -0.19284   1.73555    |
 |   206    0.83333   0.66667   0.16667   |   -0.38568   0.00000   1.54271    |
 |   207    0.83333   0.66667   0.33333   |   -0.57852   0.19284   1.34987    |
 |   208    0.83333   0.66667   0.50000   |   -0.77136   0.38568   1.15704    |
 |   209    0.83333   0.66667   0.66667   |   -0.96420   0.57852   0.96420    |
 |   210    0.83333   0.66667   0.83333   |   -1.15704   0.77136   0.77136    |
 |   211    0.83333   0.83333   0.00000   |    0.00000   0.00000   1.92839    |
 |   212    0.83333   0.83333   0.16667   |   -0.19284   0.19284   1.73555    |
 |   213    0.83333   0.83333   0.33333   |   -0.38568   0.38568   1.54271    |
 |   214    0.83333   0.83333   0.50000   |   -0.57852   0.57852   1.34987    |
 |   215    0.83333   0.83333   0.66667   |   -0.77136   0.77136   1.15704    |
 |   216    0.83333   0.83333   0.83333   |   -0.96420   0.96420   0.96420    |
 *----------------------------------------------------------------------------*
  
  
 *---------------------------------- MAIN ------------------------------------*
 |  Number of Wannier Functions               :                16             |
 |  Number of Objective Wannier Functions     :                16             |
 |  Number of input Bloch states              :                16             |
 |  Output verbosity (1=low, 5=high)          :                 2             |
 |  Timing Level (1=low, 5=high)              :                 1             |
 |  Optimisation (0=memory, 3=speed)          :                 3             |
 |  Length Unit                               :               Ang             |
 |  Post-processing setup (write *.nnkp)      :                 T             |
 |  Using Gamma-only branch of algorithms     :                 F             |
 *----------------------------------------------------------------------------*
 *------------------------------- WANNIERISE ---------------------------------*
 |  Total number of iterations                :               300             |
 |  Number of CG steps before reset           :                 5             |
 |  Trial step length for line search         :             2.000             |
 |  Convergence tolerence                     :         0.100E-09             |
 |  Convergence window                        :                -1             |
 |  Iterations between writing output         :                 1             |
 |  Iterations between backing up to disk     :               100             |
 |  Write r^2_nm to file                      :                 F             |
 |  Write xyz WF centres to file              :                 F             |
 |  Write on-site energies <0n|H|0n> to file  :                 F             |
 |  Use guiding centre to control phases      :                 F             |
 |  Use phases for initial projections        :                 F             |
 *----------------------------------------------------------------------------*
 *-------------------------------- PLOTTING ----------------------------------*
 |  Plotting interpolated bandstructure       :                 T             |
 |   Number of K-path sections                :                 2             |
 |   Divisions along first K-path section     :               100             |
 |   Output format                            :           gnuplot             |
 |   Output mode                              :               s-k             |
 *----------------------------------------------------------------------------*
 |   K-space path sections:                                                   |
 |    From: L       0.500  0.500  0.500     To: G       0.000  0.000  0.000   |
 |    From: G       0.000  0.000  0.000     To: X       0.000  0.500  0.500   |
 *----------------------------------------------------------------------------*
 |  Plotting Hamiltonian in WF basis          :                 T             |
 *----------------------------------------------------------------------------*
 Time to read parameters        0.015 (sec)

 *---------------------------------- K-MESH ----------------------------------*
 +----------------------------------------------------------------------------+
 |                    Distance to Nearest-Neighbour Shells                    |
 |                    ------------------------------------                    |
 |          Shell             Distance (Ang^-1)          Multiplicity         |
 |          -----             -----------------          ------------         |
 |             1                   0.334007                      8            |
 |             2                   0.385679                      6            |
 |             3                   0.545432                     12            |
 |             4                   0.639575                     24            |
 |             5                   0.668015                      8            |
 |             6                   0.771357                      6            |
 |             7                   0.840567                     24            |
 |             8                   0.862403                     24            |
 |             9                   0.944716                     24            |
 |            10                   1.002022                     32            |
 |            11                   1.090864                     12            |
 |            12                   1.140852                     48            |
 |            13                   1.157036                     30            |
 |            14                   1.219623                     24            |
 |            15                   1.264532                     24            |
 |            16                   1.279151                     24            |
 |            17                   1.336030                      8            |
 |            18                   1.377148                     48            |
 |            19                   1.390584                     24            |
 |            20                   1.443077                     48            |
 |            21                   1.481227                     72            |
 |            22                   1.542714                      6            |
 |            23                   1.578457                     24            |
 |            24                   1.590193                     48            |
 |            25                   1.636295                     36            |
 |            26                   1.670037                     56            |
 |            27                   1.681134                     24            |
 |            28                   1.724807                     24            |
 |            29                   1.756849                     72            |
 |            30                   1.767401                     48            |
 |            31                   1.808993                     24            |
 |            32                   1.839569                     48            |
 |            33                   1.889431                     24            |
 |            34                   1.918726                     72            |
 |            35                   1.928393                     30            |
 |            36                   1.966582                     72            |
 +----------------------------------------------------------------------------+
 | The b-vectors are chosen automatically                                     |
 | Shell:  1 w_b    3.3613911      (Ang^2)                                    |
 | The following shells are used:   1                                         |
 +----------------------------------------------------------------------------+
 |                        Shell   # Nearest-Neighbours                        |
 |                        -----   --------------------                        |
 |                          1               8                                 |
 +----------------------------------------------------------------------------+
 | Completeness relation is fully satisfied [Eq. (B1), PRB 56, 12847 (1997)]  |
 +----------------------------------------------------------------------------+
 |                  b_k Vectors (Ang^-1) and Weights (Ang^2)                  |
 |                  ----------------------------------------                  |
 |            No.         b_k(x)      b_k(y)      b_k(z)        w_b           |
 |            ---        --------------------------------     --------        |
 |             1        -0.192839    0.192839   -0.192839     3.361391        |
 |             2         0.192839    0.192839    0.192839     3.361391        |
 |             3        -0.192839   -0.192839    0.192839     3.361391        |
 |             4        -0.192839    0.192839    0.192839     3.361391        |
 |             5         0.192839   -0.192839    0.192839     3.361391        |
 |             6        -0.192839   -0.192839   -0.192839     3.361391        |
 |             7         0.192839    0.192839   -0.192839     3.361391        |
 |             8         0.192839   -0.192839   -0.192839     3.361391        |
 +----------------------------------------------------------------------------+
 |                           b_k Directions (Ang^-1)                          |
 |                           -----------------------                          |
 |            No.           x           y           z                         |
 |            ---        --------------------------------                     |
 |             1        -0.192839    0.192839   -0.192839                     |
 |             2         0.192839    0.192839    0.192839                     |
 |             3        -0.192839   -0.192839    0.192839                     |
 |             4        -0.192839    0.192839    0.192839                     |
 +----------------------------------------------------------------------------+
  
 Time to get kmesh              0.153 (sec)
 Time to project overlaps       0.058 (sec)
 
 *------------------------------- WANNIERISE ---------------------------------*
 +--------------------------------------------------------------------+<-- CONV
 | Iter  Delta Spread     RMS Gradient      Spread (Ang^2)      Time  |<-- CONV
 +--------------------------------------------------------------------+<-- CONV
 
 ------------------------------------------------------------------------------
 Initial State
  WF centre and spread    1  (  0.257812,  0.257812,  0.258087 )     4.51947752
  WF centre and spread    2  (  0.257812,  0.257812,  0.258087 )     4.51947932
  WF centre and spread    3  (  0.257812, -0.257812, -0.258088 )     4.51948005
  WF centre and spread    4  (  0.257812, -0.257811, -0.258088 )     4.51947966
  WF centre and spread    5  ( -0.257812,  0.257812, -0.258088 )     4.51948244
  WF centre and spread    6  ( -0.257812,  0.257812, -0.258088 )     4.51948213
  WF centre and spread    7  ( -0.257812, -0.257812,  0.258088 )     4.51948160
  WF centre and spread    8  ( -0.257812, -0.257812,  0.258088 )     4.51948011
  WF centre and spread    9  (  1.767012,  1.767011,  1.766916 )     4.30168766
  WF centre and spread   10  (  1.767011,  1.767011,  1.766915 )     4.30168832
  WF centre and spread   11  (  1.767011,  0.948197,  0.948293 )     4.30168883
  WF centre and spread   12  (  1.767011,  0.948197,  0.948293 )     4.30168811
  WF centre and spread   13  (  0.948197,  1.767011,  0.948293 )     4.30169149
  WF centre and spread   14  (  0.948198,  1.767011,  0.948293 )     4.30169140
  WF centre and spread   15  (  0.948197,  0.948197,  1.766915 )     4.30168911
  WF centre and spread   16  (  0.948197,  0.948197,  1.766915 )     4.30169063
  Sum of centres and spreads ( 10.860835, 10.860832, 10.860832 )    70.56935837
 
      0     0.706E+02     0.0000000000       70.5693563801       0.00  <-- CONV
        O_D=      0.9646894 O_OD=     30.6955625 O_TOT=     70.5693564 <-- SPRD
 ------------------------------------------------------------------------------
 Cycle:      1
  WF centre and spread    1  (  0.253354,  0.253354,  0.253856 )     4.43703211
  WF centre and spread    2  (  0.253355,  0.253355,  0.253856 )     4.43703298
  WF centre and spread    3  (  0.253355, -0.253355, -0.253857 )     4.43703330
  WF centre and spread    4  (  0.253354, -0.253354, -0.253857 )     4.43703297
  WF centre and spread    5  ( -0.253355,  0.253354, -0.253857 )     4.43703444
  WF centre and spread    6  ( -0.253354,  0.253354, -0.253857 )     4.43703497
  WF centre and spread    7  ( -0.253355, -0.253354,  0.253857 )     4.43703447
  WF centre and spread    8  ( -0.253354, -0.253354,  0.253857 )     4.43703293
  WF centre and spread    9  (  1.783666,  1.783665,  1.783663 )     4.14297229
  WF centre and spread   10  (  1.783666,  1.783665,  1.783662 )     4.14297238
  WF centre and spread   11  (  1.783665,  0.931543,  0.931546 )     4.14297329
  WF centre and spread   12  (  1.783665,  0.931543,  0.931546 )     4.14297322
  WF centre and spread   13  (  0.931544,  1.783665,  0.931546 )     4.14297601
  WF centre and spread   14  (  0.931544,  1.783665,  0.931547 )     4.14297632
  WF centre and spread   15  (  0.931543,  0.931543,  1.783662 )     4.14297389
  WF centre and spread   16  (  0.931543,  0.931543,  1.783662 )     4.14297507
  Sum of centres and spreads ( 10.860835, 10.860832, 10.860832 )    68.64006066
 
      1    -0.193E+01     1.0607440261       68.6400586560       0.05  <-- CONV
        O_D=      0.8628087 O_OD=     28.8681454 O_TOT=     68.6400587 <-- SPRD
 Delta: O_D= -0.1018807E+00 O_OD= -0.1827417E+01 O_TOT= -0.1929298E+01 <-- DLTA
 ------------------------------------------------------------------------------
 Cycle:      2
  WF centre and spread    1  (  0.247942,  0.247942,  0.248458 )     4.41925739
  WF centre and spread    2  (  0.247942,  0.247943,  0.248458 )     4.41925743
  WF centre and spread    3  (  0.247942, -0.247942, -0.248459 )     4.41925756
  WF centre and spread    4  (  0.247942, -0.247941, -0.248458 )     4.41925736
  WF centre and spread    5  ( -0.247942,  0.247942, -0.248459 )     4.41925798
  WF centre and spread    6  ( -0.247942,  0.247942, -0.248459 )     4.41925912
  WF centre and spread    7  ( -0.247942, -0.247942,  0.248458 )     4.41925858
  WF centre and spread    8  ( -0.247942, -0.247942,  0.248458 )     4.41925690
  WF centre and spread    9  (  1.796386,  1.796385,  1.796663 )     4.06921447
  WF centre and spread   10  (  1.796386,  1.796386,  1.796662 )     4.06921416
  WF centre and spread   11  (  1.796385,  0.918822,  0.918546 )     4.06921496
  WF centre and spread   12  (  1.796386,  0.918823,  0.918546 )     4.06921567
  WF centre and spread   13  (  0.918823,  1.796385,  0.918546 )     4.06921758
  WF centre and spread   14  (  0.918824,  1.796385,  0.918547 )     4.06921815
  WF centre and spread   15  (  0.918823,  0.918823,  1.796662 )     4.06921591
  WF centre and spread   16  (  0.918823,  0.918823,  1.796662 )     4.06921709
  Sum of centres and spreads ( 10.860835, 10.860832, 10.860832 )    67.90779030
 
      2    -0.732E+00     0.7140178216       67.9077882865       0.10  <-- CONV
        O_D=      0.8107426 O_OD=     28.1879412 O_TOT=     67.9077883 <-- SPRD
 Delta: O_D= -0.5206615E-01 O_OD= -0.6802042E+00 O_TOT= -0.7322704E+00 <-- DLTA
 ------------------------------------------------------------------------------
 Cycle:      3
  WF centre and spread    1  (  0.244553,  0.244553,  0.245251 )     4.41956045
  WF centre and spread    2  (  0.244553,  0.244554,  0.245252 )     4.41955963
  WF centre and spread    3  (  0.244553, -0.244554, -0.245253 )     4.41955954
  WF centre and spread    4  (  0.244553, -0.244552, -0.245252 )     4.41955952
  WF centre and spread    5  ( -0.244554,  0.244553, -0.245252 )     4.41955937
  WF centre and spread    6  ( -0.244553,  0.244553, -0.245253 )     4.41956115
  WF centre and spread    7  ( -0.244553, -0.244553,  0.245252 )     4.41956070
  WF centre and spread    8  ( -0.244553, -0.244553,  0.245252 )     4.41955881
  WF centre and spread    9  (  1.803939,  1.803938,  1.804107 )     4.02269460
  WF centre and spread   10  (  1.803939,  1.803939,  1.804106 )     4.02269397
  WF centre and spread   11  (  1.803938,  0.911269,  0.911102 )     4.02269465
  WF centre and spread   12  (  1.803939,  0.911270,  0.911102 )     4.02269596
  WF centre and spread   13  (  0.911270,  1.803938,  0.911102 )     4.02269713
  WF centre and spread   14  (  0.911271,  1.803938,  0.911103 )     4.02269807
  WF centre and spread   15  (  0.911270,  0.911269,  1.804106 )     4.02269584
  WF centre and spread   16  (  0.911270,  0.911269,  1.804107 )     4.02269706
  Sum of centres and spreads ( 10.860836, 10.860832, 10.860832 )    67.53804644
 
      3    -0.370E+00     0.4974260966       67.5380444175       0.14  <-- CONV
        O_D=      0.7971997 O_OD=     27.8317402 O_TOT=     67.5380444 <-- SPRD
 Delta: O_D= -0.1354292E-01 O_OD= -0.3562010E+00 O_TOT= -0.3697439E+00 <-- DLTA
 ------------------------------------------------------------------------------
 Cycle:      4
  WF centre and spread    1  (  0.243956,  0.243956,  0.244759 )     4.42578673
  WF centre and spread    2  (  0.243957,  0.243957,  0.244759 )     4.42578515
  WF centre and spread    3  (  0.243957, -0.243957, -0.244760 )     4.42578504
  WF centre and spread    4  (  0.243956, -0.243956, -0.244760 )     4.42578511
  WF centre and spread    5  ( -0.243957,  0.243956, -0.244760 )     4.42578446
  WF centre and spread    6  ( -0.243957,  0.243956, -0.244760 )     4.42578671
  WF centre and spread    7  ( -0.243957, -0.243957,  0.244760 )     4.42578629
  WF centre and spread    8  ( -0.243956, -0.243956,  0.244759 )     4.42578425
  WF centre and spread    9  (  1.808140,  1.808139,  1.808328 )     3.99246653
  WF centre and spread   10  (  1.808140,  1.808139,  1.808328 )     3.99246554
  WF centre and spread   11  (  1.808139,  0.907069,  0.906880 )     3.99246605
  WF centre and spread   12  (  1.808139,  0.907069,  0.906880 )     3.99246784
  WF centre and spread   13  (  0.907070,  1.808138,  0.906880 )     3.99246838
  WF centre and spread   14  (  0.907070,  1.808139,  0.906881 )     3.99246956
  WF centre and spread   15  (  0.907069,  0.907069,  1.808328 )     3.99246738
  WF centre and spread   16  (  0.907070,  0.907069,  1.808328 )     3.99246871
  Sum of centres and spreads ( 10.860836, 10.860832, 10.860831 )    67.34602373
 
      4    -0.192E+00     0.3537559944       67.3460217120       0.18  <-- CONV
        O_D=      0.7942546 O_OD=     27.6426626 O_TOT=     67.3460217 <-- SPRD
 Delta: O_D= -0.2945046E-02 O_OD= -0.1890777E+00 O_TOT= -0.1920227E+00 <-- DLTA
 ------------------------------------------------------------------------------
 Cycle:      5
  WF centre and spread    1  (  0.244853,  0.244853,  0.245767 )     4.43493274
  WF centre and spread    2  (  0.244853,  0.244854,  0.245768 )     4.43493037
  WF centre and spread    3  (  0.244854, -0.244854, -0.245769 )     4.43493033
  WF centre and spread    4  (  0.244853, -0.244853, -0.245768 )     4.43493060
  WF centre and spread    5  ( -0.244854,  0.244853, -0.245769 )     4.43492948
  WF centre and spread    6  ( -0.244853,  0.244853, -0.245769 )     4.43493231
  WF centre and spread    7  ( -0.244853, -0.244853,  0.245768 )     4.43493172
  WF centre and spread    8  ( -0.244853, -0.244853,  0.245768 )     4.43492958
  WF centre and spread    9  (  1.810752,  1.810750,  1.810893 )     3.96858101
  WF centre and spread   10  (  1.810752,  1.810751,  1.810892 )     3.96857969
  WF centre and spread   11  (  1.810751,  0.904457,  0.904316 )     3.96858003
  WF centre and spread   12  (  1.810751,  0.904458,  0.904316 )     3.96858217
  WF centre and spread   13  (  0.904458,  1.810750,  0.904316 )     3.96858228
  WF centre and spread   14  (  0.904458,  1.810751,  0.904317 )     3.96858355
  WF centre and spread   15  (  0.904457,  0.904457,  1.810892 )     3.96858148
  WF centre and spread   16  (  0.904458,  0.904457,  1.810892 )     3.96858292
  Sum of centres and spreads ( 10.860836, 10.860832, 10.860831 )    67.22810026
 
      5    -0.118E+00     0.2634040057       67.2280982310       0.23  <-- CONV
        O_D=      0.8028377 O_OD=     27.5161560 O_TOT=     67.2280982 <-- SPRD
 Delta: O_D=  0.8583098E-02 O_OD= -0.1265066E+00 O_TOT= -0.1179235E+00 <-- DLTA
 ------------------------------------------------------------------------------
 Cycle:      6
  WF centre and spread    1  (  0.245780,  0.245780,  0.246718 )     4.44235724
  WF centre and spread    2  (  0.245781,  0.245782,  0.246718 )     4.44235414
  WF centre and spread    3  (  0.245781, -0.245781, -0.246719 )     4.44235428
  WF centre and spread    4  (  0.245780, -0.245780, -0.246719 )     4.44235477
  WF centre and spread    5  ( -0.245781,  0.245781, -0.246719 )     4.44235333
  WF centre and spread    6  ( -0.245781,  0.245780, -0.246719 )     4.44235675
  WF centre and spread    7  ( -0.245781, -0.245781,  0.246719 )     4.44235581
  WF centre and spread    8  ( -0.245780, -0.245780,  0.246718 )     4.44235361
  WF centre and spread    9  (  1.812159,  1.812158,  1.812222 )     3.95407302
  WF centre and spread   10  (  1.812160,  1.812159,  1.812222 )     3.95407149
  WF centre and spread   11  (  1.812158,  0.903049,  0.902987 )     3.95407174
  WF centre and spread   12  (  1.812159,  0.903050,  0.902987 )     3.95407404
  WF centre and spread   13  (  0.903050,  1.812158,  0.902987 )     3.95407396
  WF centre and spread   14  (  0.903051,  1.812158,  0.902988 )     3.95407523
  WF centre and spread   15  (  0.903050,  0.903049,  1.812222 )     3.95407329
  WF centre and spread   16  (  0.903050,  0.903050,  1.812222 )     3.95407475
  Sum of centres and spreads ( 10.860836, 10.860832, 10.860831 )    67.17142745
 
      6    -0.567E-01     0.1984076691       67.1714254249       0.27  <-- CONV
        O_D=      0.8049441 O_OD=     27.4573768 O_TOT=     67.1714254 <-- SPRD
 Delta: O_D=  0.2106371E-02 O_OD= -0.5877918E-01 O_TOT= -0.5667281E-01 <-- DLTA
 ------------------------------------------------------------------------------
 Cycle:      7
  WF centre and spread    1  (  0.245945,  0.245945,  0.246883 )     4.44289751
  WF centre and spread    2  (  0.245946,  0.245947,  0.246884 )     4.44289414
  WF centre and spread    3  (  0.245946, -0.245946, -0.246885 )     4.44289435
  WF centre and spread    4  (  0.245946, -0.245945, -0.246884 )     4.44289494
  WF centre and spread    5  ( -0.245947,  0.245946, -0.246885 )     4.44289347
  WF centre and spread    6  ( -0.245946,  0.245946, -0.246885 )     4.44289706
  WF centre and spread    7  ( -0.245946, -0.245946,  0.246884 )     4.44289596
  WF centre and spread    8  ( -0.245946, -0.245946,  0.246884 )     4.44289375
  WF centre and spread    9  (  1.812364,  1.812362,  1.812405 )     3.95166915
  WF centre and spread   10  (  1.812364,  1.812363,  1.812404 )     3.95166759
  WF centre and spread   11  (  1.812363,  0.902845,  0.902804 )     3.95166783
  WF centre and spread   12  (  1.812363,  0.902846,  0.902804 )     3.95167015
  WF centre and spread   13  (  0.902846,  1.812362,  0.902804 )     3.95167006
  WF centre and spread   14  (  0.902846,  1.812363,  0.902805 )     3.95167132
  WF centre and spread   15  (  0.902845,  0.902845,  1.812404 )     3.95166943
  WF centre and spread   16  (  0.902846,  0.902845,  1.812405 )     3.95167088
  Sum of centres and spreads ( 10.860836, 10.860832, 10.860831 )    67.15651759
 
      7    -0.149E-01     0.1159751667       67.1565155622       0.31  <-- CONV
        O_D=      0.8023417 O_OD=     27.4450693 O_TOT=     67.1565156 <-- SPRD
 Delta: O_D= -0.2602378E-02 O_OD= -0.1230748E-01 O_TOT= -0.1490986E-01 <-- DLTA
 ------------------------------------------------------------------------------
 Cycle:      8
  WF centre and spread    1  (  0.246154,  0.246154,  0.247080 )     4.44607357
  WF centre and spread    2  (  0.246155,  0.246156,  0.247080 )     4.44606970
  WF centre and spread    3  (  0.246155, -0.246155, -0.247081 )     4.44607008
  WF centre and spread    4  (  0.246155, -0.246154, -0.247081 )     4.44607083
  WF centre and spread    5  ( -0.246156,  0.246155, -0.247081 )     4.44606926
  WF centre and spread    6  ( -0.246155,  0.246155, -0.247081 )     4.44607325
  WF centre and spread    7  ( -0.246155, -0.246155,  0.247081 )     4.44607181
  WF centre and spread    8  ( -0.246155, -0.246155,  0.247080 )     4.44606957
  WF centre and spread    9  (  1.812584,  1.812583,  1.812576 )     3.94762032
  WF centre and spread   10  (  1.812584,  1.812584,  1.812575 )     3.94761869
[...]
  WF centre and spread    2  (  0.267133,  0.167109,  0.327665 )     4.81907158
  WF centre and spread    3  (  0.231101, -0.077095, -0.470548 )     4.76737073
  WF centre and spread    4  (  0.324691, -0.006508, -0.485799 )     4.46305569
  WF centre and spread    5  ( -0.347714,  0.412989,  0.031170 )     4.60691944
  WF centre and spread    6  ( -0.407389,  0.336702,  0.035471 )     4.68199830
  WF centre and spread    7  ( -0.222476, -0.416730,  0.141732 )     4.60102924
  WF centre and spread    8  ( -0.150685, -0.482301,  0.213146 )     4.51117725
  WF centre and spread    9  (  1.805368,  1.838024,  1.817037 )     3.66314496
  WF centre and spread   10  (  1.809518,  1.817233,  1.814089 )     3.70514122
  WF centre and spread   11  (  1.836370,  0.877699,  0.966115 )     3.63836931
  WF centre and spread   12  (  1.822150,  0.858670,  0.954115 )     3.64307276
  WF centre and spread   13  (  0.930462,  1.797553,  0.869424 )     3.70237676
  WF centre and spread   14  (  0.920725,  1.796182,  0.869177 )     3.67097622
  WF centre and spread   15  (  0.887173,  0.938266,  1.843889 )     3.70001262
  WF centre and spread   16  (  0.877298,  0.939569,  1.838997 )     3.67450804
  Sum of centres and spreads ( 10.979580, 10.903032, 11.132906 )    66.33191834
 
    291     0.789E-02     0.1627862607       66.3319162692      12.52  <-- CONV
        O_D=      0.8774913 O_OD=     26.5453205 O_TOT=     66.3319163 <-- SPRD
 Delta: O_D=  0.1489815E-01 O_OD= -0.7009297E-02 O_TOT=  0.7888856E-02 <-- DLTA
 ------------------------------------------------------------------------------
 Cycle:    292
  WF centre and spread    1  (  0.395905,  0.105698,  0.367269 )     4.48371902
  WF centre and spread    2  (  0.267144,  0.167107,  0.327664 )     4.81918212
  WF centre and spread    3  (  0.230969, -0.076956, -0.470436 )     4.76711414
  WF centre and spread    4  (  0.324624, -0.006425, -0.485743 )     4.46315136
  WF centre and spread    5  ( -0.345395,  0.410689,  0.033518 )     4.60428906
  WF centre and spread    6  ( -0.407645,  0.336992,  0.035192 )     4.71482923
  WF centre and spread    7  ( -0.222478, -0.416742,  0.141730 )     4.60103147
  WF centre and spread    8  ( -0.150701, -0.482333,  0.213159 )     4.51135421
  WF centre and spread    9  (  1.805369,  1.838023,  1.817038 )     3.66313854
  WF centre and spread   10  (  1.809515,  1.817236,  1.814088 )     3.70514542
  WF centre and spread   11  (  1.836384,  0.877688,  0.966157 )     3.63846413
  WF centre and spread   12  (  1.822177,  0.858635,  0.954131 )     3.64383249
  WF centre and spread   13  (  0.930479,  1.797539,  0.869454 )     3.70246687
  WF centre and spread   14  (  0.920738,  1.796160,  0.869181 )     3.67162626
  WF centre and spread   15  (  0.887171,  0.938273,  1.843892 )     3.70002979
  WF centre and spread   16  (  0.877293,  0.939571,  1.838999 )     3.67452372
  Sum of centres and spreads ( 10.981551, 10.901156, 11.135293 )    66.36389783
 
    292     0.320E-01     4.5245882406       66.3638957567      12.56  <-- CONV
        O_D=      0.9091212 O_OD=     26.5456700 O_TOT=     66.3638958 <-- SPRD
 Delta: O_D=  0.3162994E-01 O_OD=  0.3495454E-03 O_TOT=  0.3197949E-01 <-- DLTA
 ------------------------------------------------------------------------------
 Cycle:    293
  WF centre and spread    1  (  0.395986,  0.105746,  0.367345 )     4.48376158
  WF centre and spread    2  (  0.267149,  0.167092,  0.327657 )     4.81950395
  WF centre and spread    3  (  0.230697, -0.076669, -0.470199 )     4.76656796
  WF centre and spread    4  (  0.324490, -0.006252, -0.485627 )     4.46344452
  WF centre and spread    5  ( -0.344832,  0.410129,  0.034120 )     4.60497287
  WF centre and spread    6  ( -0.408341,  0.337557,  0.034497 )     4.67429099
  WF centre and spread    7  ( -0.222470, -0.416753,  0.141717 )     4.60105042
  WF centre and spread    8  ( -0.150720, -0.482390,  0.213187 )     4.51181782
  WF centre and spread    9  (  1.805371,  1.838024,  1.817041 )     3.66312427
  WF centre and spread   10  (  1.809509,  1.817243,  1.814087 )     3.70516023
  WF centre and spread   11  (  1.836376,  0.877700,  0.966172 )     3.63852848
  WF centre and spread   12  (  1.822235,  0.858586,  0.954141 )     3.64599969
  WF centre and spread   13  (  0.930479,  1.797542,  0.869459 )     3.70252372
  WF centre and spread   14  (  0.920765,  1.796135,  0.869161 )     3.67343590
  WF centre and spread   15  (  0.887163,  0.938290,  1.843899 )     3.70006482
  WF centre and spread   16  (  0.877285,  0.939583,  1.839004 )     3.67456156
  Sum of centres and spreads ( 10.981140, 10.901563, 11.135661 )    66.32880877
 
    293    -0.351E-01     2.8491145863       66.3288066920      12.60  <-- CONV
        O_D=      0.8729887 O_OD=     26.5467134 O_TOT=     66.3288067 <-- SPRD
 Delta: O_D= -0.3613249E-01 O_OD=  0.1043427E-02 O_TOT= -0.3508906E-01 <-- DLTA
 ------------------------------------------------------------------------------
 Cycle:    294
  WF centre and spread    1  (  0.396026,  0.105764,  0.367387 )     4.48381273
  WF centre and spread    2  (  0.267155,  0.167083,  0.327662 )     4.81958778
  WF centre and spread    3  (  0.230455, -0.076407, -0.469987 )     4.76611418
  WF centre and spread    4  (  0.324407, -0.006137, -0.485560 )     4.46349384
  WF centre and spread    5  ( -0.347136,  0.412414,  0.031840 )     4.60485856
  WF centre and spread    6  ( -0.408204,  0.337358,  0.034681 )     4.66648076
  WF centre and spread    7  ( -0.222457, -0.416756,  0.141700 )     4.60107427
  WF centre and spread    8  ( -0.150739, -0.482439,  0.213216 )     4.51191599
  WF centre and spread    9  (  1.805369,  1.838027,  1.817044 )     3.66311133
  WF centre and spread   10  (  1.809507,  1.817245,  1.814088 )     3.70515000
  WF centre and spread   11  (  1.836350,  0.877730,  0.966134 )     3.63857117
  WF centre and spread   12  (  1.822249,  0.858578,  0.954149 )     3.64649282
  WF centre and spread   13  (  0.930460,  1.797561,  0.869424 )     3.70251390
  WF centre and spread   14  (  0.920772,  1.796132,  0.869157 )     3.67382622
  WF centre and spread   15  (  0.887152,  0.938308,  1.843906 )     3.70009208
  WF centre and spread   16  (  0.877282,  0.939590,  1.839007 )     3.67456219
  Sum of centres and spreads ( 10.978647, 10.904051, 11.133846 )    66.32165781
 
    294    -0.715E-02     0.8367307642       66.3216557341      12.64  <-- CONV
        O_D=      0.8656488 O_OD=     26.5469024 O_TOT=     66.3216557 <-- SPRD
 Delta: O_D= -0.7339963E-02 O_OD=  0.1890047E-03 O_TOT= -0.7150958E-02 <-- DLTA
 ------------------------------------------------------------------------------
 Cycle:    295
  WF centre and spread    1  (  0.396072,  0.105769,  0.367428 )     4.48384940
  WF centre and spread    2  (  0.267164,  0.167073,  0.327671 )     4.81963680
  WF centre and spread    3  (  0.230165, -0.076091, -0.469742 )     4.76571054
  WF centre and spread    4  (  0.324340, -0.006029, -0.485512 )     4.46351644
  WF centre and spread    5  ( -0.346170,  0.411452,  0.032873 )     4.60388158
  WF centre and spread    6  ( -0.408040,  0.337148,  0.034912 )     4.66438978
  WF centre and spread    7  ( -0.222455, -0.416777,  0.141684 )     4.60107664
  WF centre and spread    8  ( -0.150759, -0.482495,  0.213247 )     4.51195953
  WF centre and spread    9  (  1.805368,  1.838026,  1.817046 )     3.66309483
  WF centre and spread   10  (  1.809506,  1.817247,  1.814088 )     3.70513107
  WF centre and spread   11  (  1.836351,  0.877735,  0.966161 )     3.63863582
  WF centre and spread   12  (  1.822257,  0.858576,  0.954158 )     3.64671184
  WF centre and spread   13  (  0.930468,  1.797556,  0.869435 )     3.70253822
  WF centre and spread   14  (  0.920777,  1.796131,  0.869157 )     3.67398709
  WF centre and spread   15  (  0.887143,  0.938328,  1.843914 )     3.70011853
  WF centre and spread   16  (  0.877279,  0.939597,  1.839011 )     3.67455273
  Sum of centres and spreads ( 10.979467, 10.903245, 11.135532 )    66.31879085
 
    295    -0.287E-02     0.5377306293       66.3187887716      12.69  <-- CONV
        O_D=      0.8626793 O_OD=     26.5470050 O_TOT=     66.3187888 <-- SPRD
 Delta: O_D= -0.2969501E-02 O_OD=  0.1025384E-03 O_TOT= -0.2866962E-02 <-- DLTA
 ------------------------------------------------------------------------------
 Cycle:    296
  WF centre and spread    1  (  0.396102,  0.105719,  0.367453 )     4.48389363
  WF centre and spread    2  (  0.267187,  0.167055,  0.327695 )     4.81966760
  WF centre and spread    3  (  0.229711, -0.075572, -0.469365 )     4.76521439
  WF centre and spread    4  (  0.324313, -0.005914, -0.485521 )     4.46351370
  WF centre and spread    5  ( -0.346778,  0.412055,  0.032396 )     4.60418496
  WF centre and spread    6  ( -0.407723,  0.336806,  0.035367 )     4.66448676
  WF centre and spread    7  ( -0.222445, -0.416816,  0.141649 )     4.60104748
  WF centre and spread    8  ( -0.150778, -0.482592,  0.213287 )     4.51194076
  WF centre and spread    9  (  1.805365,  1.838025,  1.817052 )     3.66306160
  WF centre and spread   10  (  1.809506,  1.817251,  1.814089 )     3.70508158
  WF centre and spread   11  (  1.836333,  0.877760,  0.966171 )     3.63856244
  WF centre and spread   12  (  1.822263,  0.858573,  0.954178 )     3.64662059
  WF centre and spread   13  (  0.930464,  1.797559,  0.869424 )     3.70240928
  WF centre and spread   14  (  0.920783,  1.796132,  0.869164 )     3.67386881
  WF centre and spread   15  (  0.887126,  0.938363,  1.843928 )     3.70014434
  WF centre and spread   16  (  0.877277,  0.939608,  1.839018 )     3.67451522
  Sum of centres and spreads ( 10.978706, 10.904011, 11.135984 )    66.31821315
 
    296    -0.578E-03     0.1441416852       66.3182110760      12.73  <-- CONV
        O_D=      0.8623603 O_OD=     26.5467463 O_TOT=     66.3182111 <-- SPRD
 Delta: O_D= -0.3189978E-03 O_OD= -0.2586978E-03 O_TOT= -0.5776956E-03 <-- DLTA
 ------------------------------------------------------------------------------
 Cycle:    297
  WF centre and spread    1  (  0.396153,  0.105632,  0.367495 )     4.48395954
  WF centre and spread    2  (  0.267225,  0.167023,  0.327735 )     4.81971685
  WF centre and spread    3  (  0.229057, -0.074807, -0.468835 )     4.76488729
  WF centre and spread    4  (  0.324301, -0.005753, -0.485566 )     4.46351235
  WF centre and spread    5  ( -0.346164,  0.411445,  0.033244 )     4.60425091
  WF centre and spread    6  ( -0.407405,  0.336455,  0.035911 )     4.66499230
  WF centre and spread    7  ( -0.222436, -0.416889,  0.141594 )     4.60098231
  WF centre and spread    8  ( -0.150792, -0.482735,  0.213334 )     4.51191292
  WF centre and spread    9  (  1.805360,  1.838022,  1.817060 )     3.66300590
  WF centre and spread   10  (  1.809505,  1.817257,  1.814090 )     3.70499838
  WF centre and spread   11  (  1.836321,  0.877784,  0.966218 )     3.63843994
  WF centre and spread   12  (  1.822270,  0.858569,  0.954203 )     3.64642969
  WF centre and spread   13  (  0.930472,  1.797552,  0.869428 )     3.70221751
  WF centre and spread   14  (  0.920791,  1.796137,  0.869169 )     3.67364270
  WF centre and spread   15  (  0.887102,  0.938415,  1.843948 )     3.70017326
  WF centre and spread   16  (  0.877274,  0.939625,  1.839028 )     3.67445053
  Sum of centres and spreads ( 10.979034, 10.903733, 11.138056 )    66.31757237
 
    297    -0.641E-03     0.2158140736       66.3175702985      12.77  <-- CONV
        O_D=      0.8621646 O_OD=     26.5463012 O_TOT=     66.3175703 <-- SPRD
 Delta: O_D= -0.1957250E-03 O_OD= -0.4450524E-03 O_TOT= -0.6407775E-03 <-- DLTA
 ------------------------------------------------------------------------------
 Cycle:    298
  WF centre and spread    1  (  0.396165,  0.105601,  0.367505 )     4.48398916
  WF centre and spread    2  (  0.267236,  0.167011,  0.327748 )     4.81973682
  WF centre and spread    3  (  0.229127, -0.074832, -0.468923 )     4.76485688
  WF centre and spread    4  (  0.324362, -0.005760, -0.485643 )     4.46351032
  WF centre and spread    5  ( -0.346756,  0.412033,  0.032724 )     4.60451198
  WF centre and spread    6  ( -0.407795,  0.336848,  0.035583 )     4.66477470
  WF centre and spread    7  ( -0.222436, -0.416916,  0.141577 )     4.60094274
  WF centre and spread    8  ( -0.150753, -0.482741,  0.213304 )     4.51189693
  WF centre and spread    9  (  1.805359,  1.838021,  1.817063 )     3.66298641
  WF centre and spread   10  (  1.809505,  1.817261,  1.814090 )     3.70496899
  WF centre and spread   11  (  1.836317,  0.877787,  0.966213 )     3.63834074
  WF centre and spread   12  (  1.822266,  0.858572,  0.954194 )     3.64632996
  WF centre and spread   13  (  0.930468,  1.797556,  0.869417 )     3.70212546
  WF centre and spread   14  (  0.920788,  1.796146,  0.869156 )     3.67353832
  WF centre and spread   15  (  0.887100,  0.938417,  1.843949 )     3.70014877
  WF centre and spread   16  (  0.877274,  0.939631,  1.839032 )     3.67442508
  Sum of centres and spreads ( 10.978226, 10.904634, 11.136990 )    66.31708326
 
    298    -0.489E-03     0.1663272248       66.3170811859      12.81  <-- CONV
        O_D=      0.8619562 O_OD=     26.5460205 O_TOT=     66.3170812 <-- SPRD
 Delta: O_D= -0.2083709E-03 O_OD= -0.2807418E-03 O_TOT= -0.4891127E-03 <-- DLTA
 ------------------------------------------------------------------------------
 Cycle:    299
  WF centre and spread    1  (  0.396187,  0.105557,  0.367522 )     4.48402537
  WF centre and spread    2  (  0.267252,  0.166993,  0.327767 )     4.81976301
  WF centre and spread    3  (  0.229208, -0.074848, -0.469032 )     4.76485084
  WF centre and spread    4  (  0.324428, -0.005750, -0.485734 )     4.46350972
  WF centre and spread    5  ( -0.346351,  0.411628,  0.033244 )     4.60448088
  WF centre and spread    6  ( -0.408226,  0.337278,  0.035247 )     4.66507785
  WF centre and spread    7  ( -0.222439, -0.416959,  0.141555 )     4.60088212
  WF centre and spread    8  ( -0.150702, -0.482755,  0.213266 )     4.51187367
  WF centre and spread    9  (  1.805357,  1.838020,  1.817067 )     3.66295843
  WF centre and spread   10  (  1.809504,  1.817266,  1.814091 )     3.70492706
  WF centre and spread   11  (  1.836322,  0.877782,  0.966228 )     3.63821676
  WF centre and spread   12  (  1.822261,  0.858577,  0.954186 )     3.64618682
  WF centre and spread   13  (  0.930472,  1.797552,  0.869418 )     3.70201772
  WF centre and spread   14  (  0.920786,  1.796157,  0.869143 )     3.67338976
  WF centre and spread   15  (  0.887098,  0.938421,  1.843951 )     3.70011350
  WF centre and spread   16  (  0.877273,  0.939640,  1.839036 )     3.67438942
  Sum of centres and spreads ( 10.978430, 10.904558, 11.136956 )    66.31666294
 
    299    -0.420E-03     0.2121383285       66.3166608652      12.86  <-- CONV
        O_D=      0.8618963 O_OD=     26.5456601 O_TOT=     66.3166609 <-- SPRD
 Delta: O_D= -0.5987924E-04 O_OD= -0.3604414E-03 O_TOT= -0.4203206E-03 <-- DLTA
 ------------------------------------------------------------------------------
 Cycle:    300
  WF centre and spread    1  (  0.396400,  0.105132,  0.367694 )     4.48437665
  WF centre and spread    2  (  0.267432,  0.166831,  0.327967 )     4.81999599
  WF centre and spread    3  (  0.229679, -0.074679, -0.469784 )     4.76541097
  WF centre and spread    4  (  0.324595, -0.005156, -0.486169 )     4.46344792
  WF centre and spread    5  ( -0.345872,  0.411126,  0.034836 )     4.60878173
  WF centre and spread    6  ( -0.409085,  0.338014,  0.035458 )     4.66683571
  WF centre and spread    7  ( -0.222455, -0.417371,  0.141328 )     4.60029866
  WF centre and spread    8  ( -0.150306, -0.483015,  0.213024 )     4.51163000
  WF centre and spread    9  (  1.805338,  1.838010,  1.817106 )     3.66267935
  WF centre and spread   10  (  1.809500,  1.817304,  1.814095 )     3.70450717
  WF centre and spread   11  (  1.836324,  0.877776,  0.966309 )     3.63690327
  WF centre and spread   12  (  1.822251,  0.858597,  0.954234 )     3.64489559
  WF centre and spread   13  (  0.930477,  1.797550,  0.869374 )     3.70085025
  WF centre and spread   14  (  0.920811,  1.796225,  0.869099 )     3.67200591
  WF centre and spread   15  (  0.887073,  0.938473,  1.843973 )     3.69975322
  WF centre and spread   16  (  0.877266,  0.939743,  1.839089 )     3.67405182
  Sum of centres and spreads ( 10.979429, 10.904561, 11.137632 )    66.31642422
 
    300    -0.239E-03     0.1196878287       66.3164221406      12.90  <-- CONV
        O_D=      0.8650173 O_OD=     26.5423003 O_TOT=     66.3164221 <-- SPRD
 Delta: O_D=  0.3121012E-02 O_OD= -0.3359737E-02 O_TOT= -0.2387246E-03 <-- DLTA
 ------------------------------------------------------------------------------

 done

 Final State
  WF centre and spread    1  (  0.396400,  0.105132,  0.367694 )     4.48437665
  WF centre and spread    2  (  0.267432,  0.166831,  0.327967 )     4.81999599
  WF centre and spread    3  (  0.229679, -0.074679, -0.469784 )     4.76541097
  WF centre and spread    4  (  0.324595, -0.005156, -0.486169 )     4.46344792
  WF centre and spread    5  ( -0.345872,  0.411126,  0.034836 )     4.60878173
  WF centre and spread    6  ( -0.409085,  0.338014,  0.035458 )     4.66683571
  WF centre and spread    7  ( -0.222455, -0.417371,  0.141328 )     4.60029866
  WF centre and spread    8  ( -0.150306, -0.483015,  0.213024 )     4.51163000
  WF centre and spread    9  (  1.805338,  1.838010,  1.817106 )     3.66267935
  WF centre and spread   10  (  1.809500,  1.817304,  1.814095 )     3.70450717
  WF centre and spread   11  (  1.836324,  0.877776,  0.966309 )     3.63690327
  WF centre and spread   12  (  1.822251,  0.858597,  0.954234 )     3.64489559
  WF centre and spread   13  (  0.930477,  1.797550,  0.869374 )     3.70085025
  WF centre and spread   14  (  0.920811,  1.796225,  0.869099 )     3.67200591
  WF centre and spread   15  (  0.887073,  0.938473,  1.843973 )     3.69975322
  WF centre and spread   16  (  0.877266,  0.939743,  1.839089 )     3.67405182
  Sum of centres and spreads ( 10.979429, 10.904561, 11.137632 )    66.31642422
 
         Spreads (Ang^2)       Omega I      =    38.909104507
        ================       Omega D      =     0.865017315
                               Omega OD     =    26.542300318
    Final Spread (Ang^2)       Omega Total  =    66.316422141
 ------------------------------------------------------------------------------

 done

 Time for wannierise           12.928 (sec)
 *---------------------------------------------------------------------------*
 |                               PLOTTING                                    |
 *---------------------------------------------------------------------------*
 
 
 Calculating interpolated band-structure
 
 Time to calculate interpolated band structure       1.864 (sec)
 
 Time for plotting              5.988 (sec)
 Total Execution Time          19.125 (sec)

 *===========================================================================*
 |                             TIMING INFORMATION                            |
 *===========================================================================*
 |    Tag                                                Ncalls      Time (s)|
 |---------------------------------------------------------------------------|
 |kmesh: get                                        :         2         0.263|
 |kmesh: write                                      :         1         0.060|
 |overlap: allocate                                 :         1         0.006|
 |wann: main                                        :         1        12.916|
 |plot: main                                        :         1         5.988|
 *---------------------------------------------------------------------------*
 
 All done: wannier90 exiting
