
     Program PHONON v.6.7MaX starts on 11Jan2021 at 18:39:44 

     This program is part of the open-source Quantum ESPRESSO suite
     for quantum simulation of materials; please cite
         "P. Giannozzi et al., J. Phys.:Condens. Matter 21 395502 (2009);
         "P. Giannozzi et al., J. Phys.:Condens. Matter 29 465901 (2017);
          URL http://www.quantum-espresso.org", 
     in publications or presentations arising from this work. More details at
     http://www.quantum-espresso.org/quote

     Parallel version (MPI), running on    72 processors

     MPI processes distributed on     3 nodes
     R & G space division:  proc/nbgrp/npool/nimage =      72
     Reading input from ph.in
      Title line not specified: using 'default'.

     Reading xml data from directory:

     ./si.save/
     Message from routine read_pp_mesh:
     mesh size missing, using the one in header

     IMPORTANT: XC functional enforced from input :
     Exchange-correlation= PBE
                           (   1   4   3   4   0   0   0)
     Any further DFT definition will be discarded
     Please, verify this is what you really want

 
     Parallelization info
     --------------------
     sticks:   dense  smooth     PW     G-vecs:    dense   smooth      PW
     Min           7       7      2                  104      104      18
     Max           9       9      3                  108      108      23
     Sum         511     511    163                 7631     7631    1411
 
     Reading collected, re-writing distributed wavefunctions


     Dynamical matrices for ( 6, 6, 6)  uniform grid of q-points
     (  16 q-points):
       N         xq(1)         xq(2)         xq(3) 
       1   0.000000000   0.000000000   0.000000000
       2  -0.166666667   0.166666667  -0.166666667
       3  -0.333333333   0.333333333  -0.333333333
       4   0.500000000  -0.500000000   0.500000000
       5   0.000000000   0.333333333   0.000000000
       6  -0.166666667   0.500000000  -0.166666667
       7   0.666666667  -0.333333333   0.666666667
       8   0.500000000  -0.166666667   0.500000000
       9   0.333333333   0.000000000   0.333333333
      10   0.000000000   0.666666667   0.000000000
      11   0.833333333  -0.166666667   0.833333333
      12   0.666666667  -0.000000000   0.666666667
      13   0.000000000  -1.000000000   0.000000000
      14   0.666666667  -0.333333333   1.000000000
      15   0.500000000  -0.166666667   0.833333333
      16  -0.333333333  -1.000000000   0.000000000

     Saving dvscf to file. Distribute only q points, not irreducible represetations.

     Calculation of q =    0.0000000   0.0000000   0.0000000

     default                                                                    

     bravais-lattice index     =            2
     lattice parameter (alat)  =      10.2620  a.u.
     unit-cell volume          =     270.1693 (a.u.)^3
     number of atoms/cell      =            2
     number of atomic types    =            1
     kinetic-energy cut-off    =      35.0000  Ry
     charge density cut-off    =     140.0000  Ry
     convergence threshold     =      1.0E-14
     beta                      =       0.7000
     number of iterations used =            4
     Exchange-correlation= PBE
                           (   1   4   3   4   0   0   0)
     Non magnetic calculation with spin-orbit

     celldm(1)=   10.26200  celldm(2)=    0.00000  celldm(3)=    0.00000
     celldm(4)=    0.00000  celldm(5)=    0.00000  celldm(6)=    0.00000

     crystal axes: (cart. coord. in units of alat)
               a(1) = ( -0.5000  0.0000  0.5000 )  
               a(2) = (  0.0000  0.5000  0.5000 )  
               a(3) = ( -0.5000  0.5000  0.0000 )  

     reciprocal axes: (cart. coord. in units 2 pi/alat)
               b(1) = ( -1.0000 -1.0000  1.0000 )  
               b(2) = (  1.0000  1.0000  1.0000 )  
               b(3) = ( -1.0000  1.0000 -1.0000 )  


     Atoms inside the unit cell: 

     Cartesian axes

     site n.  atom      mass           positions (alat units)
        1     Si  28.0855   tau(    1) = (    0.00000    0.00000    0.00000  )
        2     Si  28.0855   tau(    2) = (    0.25000    0.25000    0.25000  )

     Computing dynamical matrix for 
                    q = (   0.0000000   0.0000000   0.0000000 )
 
     49 Sym.Ops. (with q -> -q+G )


     G cutoff =  373.4499  (    107 G-vectors)     FFT grid: ( 32, 32, 32)
     number of k points=    72

     PseudoPot. # 1 for Si read from file:
     /THL8/home/jwluo/filepool/pseudos/Si_r.upf
     MD5 check sum: 538a76d466da59d525cdbd01722ac2dd
     Pseudo is Norm-conserving + core correction, Zval =  4.0
     Generated using ONCVPSP code by D. R. Hamann
     Using radial grid of 1528 points, 10 beta functions with: 
                l(1) =   0
                l(2) =   0
                l(3) =   1
                l(4) =   1
                l(5) =   1
                l(6) =   1
                l(7) =   2
                l(8) =   2
                l(9) =   2
               l(10) =   2

     Mode symmetry, O_h (m-3m)  point group:


     Electric field:
     Dielectric constant
     Born effective charges in two ways 


     Atomic displacements:
     There are    2 irreducible representations

     Representation     1      3 modes -  To be done

     Representation     2      3 modes -  To be done



     Alpha used in Ewald sum =   1.5000
     PHONON       :      7.57s CPU     10.04s WALL


     Electric Fields Calculation

      iter #   1 total cpu time :    41.2 secs   av.it.:   6.4
      thresh= 1.000E-02 alpha_mix =  0.700 |ddv_scf|^2 =  3.860E-08

      iter #   2 total cpu time :    49.8 secs   av.it.:  11.9
      thresh= 1.965E-05 alpha_mix =  0.700 |ddv_scf|^2 =  2.285E-09

      iter #   3 total cpu time :    58.4 secs   av.it.:  11.6
      thresh= 4.780E-06 alpha_mix =  0.700 |ddv_scf|^2 =  1.197E-10

      iter #   4 total cpu time :    66.7 secs   av.it.:  11.4
      thresh= 1.094E-06 alpha_mix =  0.700 |ddv_scf|^2 =  8.066E-13

      iter #   5 total cpu time :    75.3 secs   av.it.:  11.8
      thresh= 8.981E-08 alpha_mix =  0.700 |ddv_scf|^2 =  1.033E-15

     End of electric fields calculation

          Dielectric constant in cartesian axis 

          (      13.020428807       0.000000000       0.000000000 )
          (       0.000000000      13.020428807      -0.000000000 )
          (       0.000000000      -0.000000000      13.020428807 )

          Effective charges (d Force / dE) in cartesian axis

           atom      1   Si 
      Ex  (       -0.00749        0.00000        0.00000 )
      Ey  (        0.00000       -0.00749       -0.00000 )
      Ez  (        0.00000       -0.00000       -0.00749 )
           atom      2   Si 
      Ex  (       -0.00749        0.00000        0.00000 )
      Ey  (        0.00000       -0.00749        0.00000 )
      Ez  (        0.00000        0.00000       -0.00749 )


     Representation #   1 modes #   1   2   3

     Self-consistent Calculation

      iter #   1 total cpu time :    86.3 secs   av.it.:   5.8
      thresh= 1.000E-02 alpha_mix =  0.700 |ddv_scf|^2 =  5.991E-09

      iter #   2 total cpu time :    94.9 secs   av.it.:  11.9
      thresh= 7.740E-06 alpha_mix =  0.700 |ddv_scf|^2 =  1.333E-10

      iter #   3 total cpu time :   103.5 secs   av.it.:  11.9
      thresh= 1.155E-06 alpha_mix =  0.700 |ddv_scf|^2 =  5.819E-12

      iter #   4 total cpu time :   112.0 secs   av.it.:  11.8
      thresh= 2.412E-07 alpha_mix =  0.700 |ddv_scf|^2 =  2.110E-14

      iter #   5 total cpu time :   120.8 secs   av.it.:  12.1
      thresh= 1.453E-08 alpha_mix =  0.700 |ddv_scf|^2 =  1.805E-16

     End of self-consistent calculation

     Convergence has been achieved 


     Representation #   2 modes #   4   5   6

     Self-consistent Calculation

      iter #   1 total cpu time :   126.6 secs   av.it.:   5.8
      thresh= 1.000E-02 alpha_mix =  0.700 |ddv_scf|^2 =  4.033E-09

      iter #   2 total cpu time :   135.7 secs   av.it.:  12.1
      thresh= 6.351E-06 alpha_mix =  0.700 |ddv_scf|^2 =  1.521E-10

      iter #   3 total cpu time :   144.6 secs   av.it.:  11.9
      thresh= 1.233E-06 alpha_mix =  0.700 |ddv_scf|^2 =  7.929E-12

      iter #   4 total cpu time :   153.4 secs   av.it.:  12.0
      thresh= 2.816E-07 alpha_mix =  0.700 |ddv_scf|^2 =  1.892E-14

      iter #   5 total cpu time :   162.1 secs   av.it.:  12.2
      thresh= 1.375E-08 alpha_mix =  0.700 |ddv_scf|^2 =  1.407E-16

     End of self-consistent calculation

     Convergence has been achieved 
 
     Number of q in the star =    1
     List of q in the star:
          1   0.000000000   0.000000000   0.000000000

          Dielectric constant in cartesian axis 

          (      13.020428807       0.000000000       0.000000000 )
          (       0.000000000      13.020428807      -0.000000000 )
          (       0.000000000      -0.000000000      13.020428807 )

          Effective charges (d Force / dE) in cartesian axis

           atom      1   Si 
      Ex  (       -0.00749        0.00000        0.00000 )
      Ey  (        0.00000       -0.00749       -0.00000 )
      Ez  (        0.00000       -0.00000       -0.00749 )
           atom      2   Si 
      Ex  (       -0.00749        0.00000        0.00000 )
      Ey  (        0.00000       -0.00749        0.00000 )
      Ez  (        0.00000        0.00000       -0.00749 )

          Effective charges (d P / du) in cartesian axis 

           atom      1   Si 
      Px  (       -0.00765        0.00000        0.00000 )
      Py  (        0.00000       -0.00765       -0.00000 )
      Pz  (        0.00000       -0.00000       -0.00765 )
           atom      2   Si 
      Px  (       -0.00765        0.00000       -0.00000 )
      Py  (        0.00000       -0.00765       -0.00000 )
      Pz  (        0.00000       -0.00000       -0.00765 )

     Diagonalizing the dynamical matrix

     q = (    0.000000000   0.000000000   0.000000000 ) 

 **************************************************************************
     freq (    1) =      -0.130306 [THz] =      -4.346557 [cm-1]
     freq (    2) =      -0.130306 [THz] =      -4.346557 [cm-1]
     freq (    3) =      -0.130306 [THz] =      -4.346557 [cm-1]
     freq (    4) =      15.410081 [THz] =     514.024978 [cm-1]
     freq (    5) =      15.410081 [THz] =     514.024978 [cm-1]
     freq (    6) =      15.410081 [THz] =     514.024978 [cm-1]
 **************************************************************************

     Mode symmetry, O_h (m-3m)  point group:

     freq (   1-   3) =         -4.3  [cm-1]   --> T_1u G_15  G_4- I  
     freq (   4-   6) =        514.0  [cm-1]   --> T_2g G_25' G_5+ R  

     Calculation of q =   -0.1666667   0.1666667  -0.1666667

     Subspace diagonalization in iterative solution of the eigenvalue problem:
     a serial algorithm will be used

 
     Parallelization info
     --------------------
     sticks:   dense  smooth     PW     G-vecs:    dense   smooth      PW
     Min           7       7      2                  104      104      19
     Max           9       9      3                  108      108      23
     Sum         511     511    163                 7631     7631    1459
 

     Title: 
     default                                                                    


     bravais-lattice index     =            2
     lattice parameter (alat)  =      10.2620  a.u.
     unit-cell volume          =     270.1693 (a.u.)^3
     number of atoms/cell      =            2
     number of atomic types    =            1
     number of electrons       =         8.00
     number of Kohn-Sham states=            8
     kinetic-energy cutoff     =      35.0000  Ry
     charge density cutoff     =     140.0000  Ry
     Exchange-correlation= PBE
                           (   1   4   3   4   0   0   0)
     Non magnetic calculation with spin-orbit


     celldm(1)=  10.262000  celldm(2)=   0.000000  celldm(3)=   0.000000
     celldm(4)=   0.000000  celldm(5)=   0.000000  celldm(6)=   0.000000

     crystal axes: (cart. coord. in units of alat)
               a(1) = (  -0.500000   0.000000   0.500000 )  
               a(2) = (   0.000000   0.500000   0.500000 )  
               a(3) = (  -0.500000   0.500000   0.000000 )  

     reciprocal axes: (cart. coord. in units 2 pi/alat)
               b(1) = ( -1.000000 -1.000000  1.000000 )  
               b(2) = (  1.000000  1.000000  1.000000 )  
               b(3) = ( -1.000000  1.000000 -1.000000 )  


     PseudoPot. # 1 for Si read from file:
     /THL8/home/jwluo/filepool/pseudos/Si_r.upf
     MD5 check sum: 538a76d466da59d525cdbd01722ac2dd
     Pseudo is Norm-conserving + core correction, Zval =  4.0
     Generated using ONCVPSP code by D. R. Hamann
     Using radial grid of 1528 points, 10 beta functions with: 
                l(1) =   0
                l(2) =   0
                l(3) =   1
                l(4) =   1
                l(5) =   1
                l(6) =   1
                l(7) =   2
                l(8) =   2
                l(9) =   2
               l(10) =   2

     atomic species   valence    mass     pseudopotential
        Si             4.00    28.08550     Si( 1.00)

     48 Sym. Ops., with inversion, found



   Cartesian axes

     site n.     atom                  positions (alat units)
         1           Si  tau(   1) = (   0.0000000   0.0000000   0.0000000  )
         2           Si  tau(   2) = (   0.2500000   0.2500000   0.2500000  )

     number of k points=   728

     Number of k-points >= 100: set verbosity='high' to print them.

     Dense  grid:     7631 G-vectors     FFT dimensions: (  32,  32,  32)

     Estimated max dynamical RAM per process >       2.82 MB

     Estimated total dynamical RAM >     203.01 MB
     Message from routine sym_rho_init:
     some processors have no G-vectors for symmetrization
     Message from routine sym_rho_init:
     some processors have no G-vectors for symmetrization
     Message from routine sym_rho_init:
     some processors have no G-vectors for symmetrization
     Message from routine sym_rho_init:
     some processors have no G-vectors for symmetrization
     Message from routine sym_rho_init:
     some processors have no G-vectors for symmetrization
     Message from routine sym_rho_init:
     some processors have no G-vectors for symmetrization
     Message from routine sym_rho_init:
     some processors have no G-vectors for symmetrization
     Message from routine sym_rho_init:
     some processors have no G-vectors for symmetrization
     Message from routine sym_rho_init:
     some processors have no G-vectors for symmetrization
     Message from routine sym_rho_init:
     some processors have no G-vectors for symmetrization
     Message from routine sym_rho_init:
     some processors have no G-vectors for symmetrization
     Message from routine sym_rho_init:
     some processors have no G-vectors for symmetrization
     Message from routine sym_rho_init:
     some processors have no G-vectors for symmetrization
     Message from routine sym_rho_init:
     some processors have no G-vectors for symmetrization
     Message from routine sym_rho_init:
     some processors have no G-vectors for symmetrization
     Message from routine sym_rho_init:
     some processors have no G-vectors for symmetrization
     Message from routine sym_rho_init:
     some processors have no G-vectors for symmetrization
     Message from routine sym_rho_init:
     some processors have no G-vectors for symmetrization
     Message from routine sym_rho_init:
     some processors have no G-vectors for symmetrization
     Message from routine sym_rho_init:
     some processors have no G-vectors for symmetrization
     Message from routine sym_rho_init:
     some processors have no G-vectors for symmetrization
     Message from routine sym_rho_init:
     some processors have no G-vectors for symmetrization
     Message from routine sym_rho_init:
     some processors have no G-vectors for symmetrization
     Message from routine sym_rho_init:
     some processors have no G-vectors for symmetrization
     Message from routine sym_rho_init:
     some processors have no G-vectors for symmetrization
     Message from routine sym_rho_init:
     some processors have no G-vectors for symmetrization
     Message from routine sym_rho_init:
     some processors have no G-vectors for symmetrization

     The potential is recalculated from file :
     ./_ph0/si.q_2/si.save/charge-density

     Starting wfcs are   16 atomic wfcs

     Band Structure Calculation
     Davidson diagonalization with overlap

     ethr =  1.25E-10,  avg # of iterations = 12.5

     total cpu time spent up to now is       32.4 secs

     End of band structure calculation

     Number of k-points >= 100: set verbosity='high' to print the bands.

     highest occupied level (ev):     6.2480

     Writing output data file ./_ph0/si.q_2/si.save/

     default                                                                    

     bravais-lattice index     =            2
     lattice parameter (alat)  =      10.2620  a.u.
     unit-cell volume          =     270.1693 (a.u.)^3
     number of atoms/cell      =            2
     number of atomic types    =            1
     kinetic-energy cut-off    =      35.0000  Ry
     charge density cut-off    =     140.0000  Ry
     convergence threshold     =      1.0E-14
     beta                      =       0.7000
     number of iterations used =            4
     Exchange-correlation= PBE
                           (   1   4   3   4   0   0   0)
     Non magnetic calculation with spin-orbit

     celldm(1)=   10.26200  celldm(2)=    0.00000  celldm(3)=    0.00000
     celldm(4)=    0.00000  celldm(5)=    0.00000  celldm(6)=    0.00000

     crystal axes: (cart. coord. in units of alat)
               a(1) = ( -0.5000  0.0000  0.5000 )  
               a(2) = (  0.0000  0.5000  0.5000 )  
               a(3) = ( -0.5000  0.5000  0.0000 )  

     reciprocal axes: (cart. coord. in units 2 pi/alat)
               b(1) = ( -1.0000 -1.0000  1.0000 )  
               b(2) = (  1.0000  1.0000  1.0000 )  
               b(3) = ( -1.0000  1.0000 -1.0000 )  


     Atoms inside the unit cell: 

     Cartesian axes

     site n.  atom      mass           positions (alat units)
        1     Si  28.0855   tau(    1) = (    0.00000    0.00000    0.00000  )
        2     Si  28.0855   tau(    2) = (    0.25000    0.25000    0.25000  )

     Computing dynamical matrix for 
                    q = (  -0.1666667   0.1666667  -0.1666667 )
 
      6 Sym.Ops. (no q -> -q+G )


     G cutoff =  373.4499  (    107 G-vectors)     FFT grid: ( 32, 32, 32)
     number of k points=   728

     PseudoPot. # 1 for Si read from file:
     /THL8/home/jwluo/filepool/pseudos/Si_r.upf
     MD5 check sum: 538a76d466da59d525cdbd01722ac2dd
     Pseudo is Norm-conserving + core correction, Zval =  4.0
     Generated using ONCVPSP code by D. R. Hamann
     Using radial grid of 1528 points, 10 beta functions with: 
                l(1) =   0
                l(2) =   0
                l(3) =   1
                l(4) =   1
                l(5) =   1
                l(6) =   1
                l(7) =   2
                l(8) =   2
                l(9) =   2
               l(10) =   2

     Mode symmetry, C_3v (3m)   point group:


     Atomic displacements:
     There are    4 irreducible representations

     Representation     1      1 modes -  To be done

     Representation     2      1 modes -  To be done

     Representation     3      2 modes -  To be done

     Representation     4      2 modes -  To be done



     Alpha used in Ewald sum =   1.5000
     PHONON       :   3m 8.97s CPU   3m18.56s WALL



     Representation #   1 mode #   1

     Self-consistent Calculation

      iter #   1 total cpu time :   208.3 secs   av.it.:   6.6
      thresh= 1.000E-02 alpha_mix =  0.700 |ddv_scf|^2 =  5.546E-04

      iter #   2 total cpu time :   220.3 secs   av.it.:   9.5
      thresh= 2.355E-03 alpha_mix =  0.700 |ddv_scf|^2 =  1.720E-02

      iter #   3 total cpu time :   230.5 secs   av.it.:   7.7
      thresh= 1.000E-02 alpha_mix =  0.700 |ddv_scf|^2 =  1.520E-07

      iter #   4 total cpu time :   242.6 secs   av.it.:   9.7
      thresh= 3.899E-05 alpha_mix =  0.700 |ddv_scf|^2 =  5.149E-09

      iter #   5 total cpu time :   254.9 secs   av.it.:   9.9
      thresh= 7.175E-06 alpha_mix =  0.700 |ddv_scf|^2 =  1.026E-10

      iter #   6 total cpu time :   267.2 secs   av.it.:   9.8
      thresh= 1.013E-06 alpha_mix =  0.700 |ddv_scf|^2 =  3.845E-11

      iter #   7 total cpu time :   278.7 secs   av.it.:   9.1
      thresh= 6.201E-07 alpha_mix =  0.700 |ddv_scf|^2 =  7.422E-12

      iter #   8 total cpu time :   288.9 secs   av.it.:   7.7
      thresh= 2.724E-07 alpha_mix =  0.700 |ddv_scf|^2 =  1.064E-13

      iter #   9 total cpu time :   300.6 secs   av.it.:   9.3
      thresh= 3.262E-08 alpha_mix =  0.700 |ddv_scf|^2 =  1.048E-14

      iter #  10 total cpu time :   312.0 secs   av.it.:   9.1
      thresh= 1.024E-08 alpha_mix =  0.700 |ddv_scf|^2 =  4.602E-16

     End of self-consistent calculation

     Convergence has been achieved 


     Representation #   2 mode #   2

     Self-consistent Calculation

      iter #   1 total cpu time :   321.8 secs   av.it.:   6.6
      thresh= 1.000E-02 alpha_mix =  0.700 |ddv_scf|^2 =  5.546E-04

      iter #   2 total cpu time :   333.8 secs   av.it.:   9.5
      thresh= 2.355E-03 alpha_mix =  0.700 |ddv_scf|^2 =  1.720E-02

      iter #   3 total cpu time :   343.9 secs   av.it.:   7.7
      thresh= 1.000E-02 alpha_mix =  0.700 |ddv_scf|^2 =  1.520E-07

      iter #   4 total cpu time :   356.0 secs   av.it.:   9.7
      thresh= 3.899E-05 alpha_mix =  0.700 |ddv_scf|^2 =  5.148E-09

      iter #   5 total cpu time :   368.3 secs   av.it.:   9.9
      thresh= 7.175E-06 alpha_mix =  0.700 |ddv_scf|^2 =  1.027E-10

      iter #   6 total cpu time :   380.4 secs   av.it.:   9.8
      thresh= 1.013E-06 alpha_mix =  0.700 |ddv_scf|^2 =  3.914E-11

      iter #   7 total cpu time :   391.9 secs   av.it.:   9.0
      thresh= 6.256E-07 alpha_mix =  0.700 |ddv_scf|^2 =  2.625E-11

      iter #   8 total cpu time :   402.5 secs   av.it.:   7.8
      thresh= 5.124E-07 alpha_mix =  0.700 |ddv_scf|^2 =  1.719E-13

      iter #   9 total cpu time :   414.0 secs   av.it.:   9.2
      thresh= 4.147E-08 alpha_mix =  0.700 |ddv_scf|^2 =  1.056E-14

      iter #  10 total cpu time :   425.5 secs   av.it.:   9.1
      thresh= 1.028E-08 alpha_mix =  0.700 |ddv_scf|^2 =  4.644E-16

     End of self-consistent calculation

     Convergence has been achieved 


     Representation #   3 modes #   3   4

     Self-consistent Calculation

      iter #   1 total cpu time :   443.5 secs   av.it.:   6.1
      thresh= 1.000E-02 alpha_mix =  0.700 |ddv_scf|^2 =  1.430E-08

      iter #   2 total cpu time :   472.3 secs   av.it.:  12.0
      thresh= 1.196E-05 alpha_mix =  0.700 |ddv_scf|^2 =  6.246E-10

      iter #   3 total cpu time :   500.7 secs   av.it.:  11.8
      thresh= 2.499E-06 alpha_mix =  0.700 |ddv_scf|^2 =  1.924E-11

      iter #   4 total cpu time :   529.5 secs   av.it.:  11.9
      thresh= 4.386E-07 alpha_mix =  0.700 |ddv_scf|^2 =  1.913E-13

      iter #   5 total cpu time :   558.1 secs   av.it.:  11.8
      thresh= 4.373E-08 alpha_mix =  0.700 |ddv_scf|^2 =  6.281E-15

      iter #   6 total cpu time :   587.1 secs   av.it.:  12.1
      thresh= 7.925E-09 alpha_mix =  0.700 |ddv_scf|^2 =  6.441E-17

     End of self-consistent calculation

     Convergence has been achieved 


     Representation #   4 modes #   5   6

     Self-consistent Calculation

      iter #   1 total cpu time :   604.8 secs   av.it.:   5.8
      thresh= 1.000E-02 alpha_mix =  0.700 |ddv_scf|^2 =  1.430E-08

      iter #   2 total cpu time :   632.9 secs   av.it.:  11.7
      thresh= 1.196E-05 alpha_mix =  0.700 |ddv_scf|^2 =  6.235E-10

      iter #   3 total cpu time :   661.1 secs   av.it.:  11.4
      thresh= 2.497E-06 alpha_mix =  0.700 |ddv_scf|^2 =  1.925E-11

      iter #   4 total cpu time :   689.0 secs   av.it.:  11.5
      thresh= 4.387E-07 alpha_mix =  0.700 |ddv_scf|^2 =  1.913E-13

      iter #   5 total cpu time :   716.8 secs   av.it.:  11.5
      thresh= 4.373E-08 alpha_mix =  0.700 |ddv_scf|^2 =  6.283E-15

      iter #   6 total cpu time :   745.2 secs   av.it.:  11.8
      thresh= 7.926E-09 alpha_mix =  0.700 |ddv_scf|^2 =  6.514E-17

     End of self-consistent calculation

     Convergence has been achieved 
 
     Number of q in the star =    8
     List of q in the star:
          1  -0.166666667   0.166666667  -0.166666667
          2   0.166666667   0.166666667   0.166666667
          3  -0.166666667  -0.166666667  -0.166666667
          4   0.166666667  -0.166666667   0.166666667
          5   0.166666667  -0.166666667  -0.166666667
          6   0.166666667   0.166666667  -0.166666667
          7  -0.166666667  -0.166666667   0.166666667
          8  -0.166666667   0.166666667   0.166666667

     Diagonalizing the dynamical matrix

     q = (   -0.166666667   0.166666667  -0.166666667 ) 

 **************************************************************************
     freq (    1) =       2.213084 [THz] =      73.820535 [cm-1]
     freq (    2) =       2.213084 [THz] =      73.820535 [cm-1]
     freq (    3) =       4.759787 [THz] =     158.769420 [cm-1]
     freq (    4) =      15.022748 [THz] =     501.104923 [cm-1]
     freq (    5) =      15.064653 [THz] =     502.502751 [cm-1]
     freq (    6) =      15.064653 [THz] =     502.502751 [cm-1]
 **************************************************************************

     Mode symmetry, C_3v (3m)   point group:

     freq (   1-   2) =         73.8  [cm-1]   --> E    L_3           
     freq (   3-   3) =        158.8  [cm-1]   --> A_1  L_1           
     freq (   4-   4) =        501.1  [cm-1]   --> A_1  L_1           
     freq (   5-   6) =        502.5  [cm-1]   --> E    L_3           

     Calculation of q =   -0.3333333   0.3333333  -0.3333333
 
     Parallelization info
     --------------------
     sticks:   dense  smooth     PW     G-vecs:    dense   smooth      PW
     Min           7       7      2                  104      104      21
     Max           9       9      3                  108      108      27
     Sum         511     511    187                 7631     7631    1639
 

     Title: 
     default                                                                    


     bravais-lattice index     =            2
     lattice parameter (alat)  =      10.2620  a.u.
     unit-cell volume          =     270.1693 (a.u.)^3
     number of atoms/cell      =            2
     number of atomic types    =            1
     number of electrons       =         8.00
     number of Kohn-Sham states=            8
     kinetic-energy cutoff     =      35.0000  Ry
     charge density cutoff     =     140.0000  Ry
     Exchange-correlation= PBE
                           (   1   4   3   4   0   0   0)
     Non magnetic calculation with spin-orbit


     celldm(1)=  10.262000  celldm(2)=   0.000000  celldm(3)=   0.000000
     celldm(4)=   0.000000  celldm(5)=   0.000000  celldm(6)=   0.000000

     crystal axes: (cart. coord. in units of alat)
               a(1) = (  -0.500000   0.000000   0.500000 )  
               a(2) = (   0.000000   0.500000   0.500000 )  
               a(3) = (  -0.500000   0.500000   0.000000 )  

     reciprocal axes: (cart. coord. in units 2 pi/alat)
               b(1) = ( -1.000000 -1.000000  1.000000 )  
               b(2) = (  1.000000  1.000000  1.000000 )  
               b(3) = ( -1.000000  1.000000 -1.000000 )  


     PseudoPot. # 1 for Si read from file:
     /THL8/home/jwluo/filepool/pseudos/Si_r.upf
     MD5 check sum: 538a76d466da59d525cdbd01722ac2dd
     Pseudo is Norm-conserving + core correction, Zval =  4.0
     Generated using ONCVPSP code by D. R. Hamann
     Using radial grid of 1528 points, 10 beta functions with: 
                l(1) =   0
                l(2) =   0
                l(3) =   1
                l(4) =   1
                l(5) =   1
                l(6) =   1
                l(7) =   2
                l(8) =   2
                l(9) =   2
               l(10) =   2

     atomic species   valence    mass     pseudopotential
        Si             4.00    28.08550     Si( 1.00)

     48 Sym. Ops., with inversion, found



   Cartesian axes

     site n.     atom                  positions (alat units)
         1           Si  tau(   1) = (   0.0000000   0.0000000   0.0000000  )
         2           Si  tau(   2) = (   0.2500000   0.2500000   0.2500000  )

     number of k points=   728

     Number of k-points >= 100: set verbosity='high' to print them.

     Dense  grid:     7631 G-vectors     FFT dimensions: (  32,  32,  32)

     Estimated max dynamical RAM per process >       2.86 MB

     Estimated total dynamical RAM >     205.74 MB
     Message from routine sym_rho_init:
     some processors have no G-vectors for symmetrization
     Message from routine sym_rho_init:
     some processors have no G-vectors for symmetrization
     Message from routine sym_rho_init:
     some processors have no G-vectors for symmetrization
     Message from routine sym_rho_init:
     some processors have no G-vectors for symmetrization
     Message from routine sym_rho_init:
     some processors have no G-vectors for symmetrization
     Message from routine sym_rho_init:
     some processors have no G-vectors for symmetrization
     Message from routine sym_rho_init:
     some processors have no G-vectors for symmetrization
     Message from routine sym_rho_init:
     some processors have no G-vectors for symmetrization
     Message from routine sym_rho_init:
     some processors have no G-vectors for symmetrization
     Message from routine sym_rho_init:
     some processors have no G-vectors for symmetrization
     Message from routine sym_rho_init:
     some processors have no G-vectors for symmetrization
     Message from routine sym_rho_init:
     some processors have no G-vectors for symmetrization
     Message from routine sym_rho_init:
     some processors have no G-vectors for symmetrization
     Message from routine sym_rho_init:
     some processors have no G-vectors for symmetrization
     Message from routine sym_rho_init:
     some processors have no G-vectors for symmetrization
     Message from routine sym_rho_init:
     some processors have no G-vectors for symmetrization
     Message from routine sym_rho_init:
     some processors have no G-vectors for symmetrization
     Message from routine sym_rho_init:
     some processors have no G-vectors for symmetrization
     Message from routine sym_rho_init:
     some processors have no G-vectors for symmetrization
     Message from routine sym_rho_init:
     some processors have no G-vectors for symmetrization
     Message from routine sym_rho_init:
     some processors have no G-vectors for symmetrization
     Message from routine sym_rho_init:
     some processors have no G-vectors for symmetrization
     Message from routine sym_rho_init:
     some processors have no G-vectors for symmetrization
     Message from routine sym_rho_init:
     some processors have no G-vectors for symmetrization

     The potential is recalculated from file :
     ./_ph0/si.q_3/si.save/charge-density

     Starting wfcs are   16 atomic wfcs

     Band Structure Calculation
     Davidson diagonalization with overlap

     ethr =  1.25E-10,  avg # of iterations = 12.5

     total cpu time spent up to now is       63.8 secs

     End of band structure calculation

     Number of k-points >= 100: set verbosity='high' to print the bands.

     highest occupied level (ev):     6.2480

     Writing output data file ./_ph0/si.q_3/si.save/

     default                                                                    

     bravais-lattice index     =            2
     lattice parameter (alat)  =      10.2620  a.u.
     unit-cell volume          =     270.1693 (a.u.)^3
     number of atoms/cell      =            2
     number of atomic types    =            1
     kinetic-energy cut-off    =      35.0000  Ry
     charge density cut-off    =     140.0000  Ry
     convergence threshold     =      1.0E-14
     beta                      =       0.7000
     number of iterations used =            4
     Exchange-correlation= PBE
                           (   1   4   3   4   0   0   0)
     Non magnetic calculation with spin-orbit

     celldm(1)=   10.26200  celldm(2)=    0.00000  celldm(3)=    0.00000
     celldm(4)=    0.00000  celldm(5)=    0.00000  celldm(6)=    0.00000

     crystal axes: (cart. coord. in units of alat)
               a(1) = ( -0.5000  0.0000  0.5000 )  
               a(2) = (  0.0000  0.5000  0.5000 )  
               a(3) = ( -0.5000  0.5000  0.0000 )  

     reciprocal axes: (cart. coord. in units 2 pi/alat)
               b(1) = ( -1.0000 -1.0000  1.0000 )  
               b(2) = (  1.0000  1.0000  1.0000 )  
               b(3) = ( -1.0000  1.0000 -1.0000 )  


     Atoms inside the unit cell: 

     Cartesian axes

     site n.  atom      mass           positions (alat units)
        1     Si  28.0855   tau(    1) = (    0.00000    0.00000    0.00000  )
        2     Si  28.0855   tau(    2) = (    0.25000    0.25000    0.25000  )

     Computing dynamical matrix for 
                    q = (  -0.3333333   0.3333333  -0.3333333 )
 
      6 Sym.Ops. (no q -> -q+G )


     G cutoff =  373.4499  (    107 G-vectors)     FFT grid: ( 32, 32, 32)
     number of k points=   728

     PseudoPot. # 1 for Si read from file:
     /THL8/home/jwluo/filepool/pseudos/Si_r.upf
     MD5 check sum: 538a76d466da59d525cdbd01722ac2dd
     Pseudo is Norm-conserving + core correction, Zval =  4.0
     Generated using ONCVPSP code by D. R. Hamann
     Using radial grid of 1528 points, 10 beta functions with: 
                l(1) =   0
                l(2) =   0
                l(3) =   1
                l(4) =   1
                l(5) =   1
                l(6) =   1
                l(7) =   2
                l(8) =   2
                l(9) =   2
               l(10) =   2

     Mode symmetry, C_3v (3m)   point group:


     Atomic displacements:
     There are    4 irreducible representations

     Representation     1      1 modes -  To be done

     Representation     2      1 modes -  To be done

     Representation     3      2 modes -  To be done

     Representation     4      2 modes -  To be done



     Alpha used in Ewald sum =   1.5000
     PHONON       :  12m30.95s CPU  13m 0.46s WALL



     Representation #   1 mode #   1

     Self-consistent Calculation

      iter #   1 total cpu time :   790.0 secs   av.it.:   6.6
      thresh= 1.000E-02 alpha_mix =  0.700 |ddv_scf|^2 =  3.573E-05

      iter #   2 total cpu time :   802.9 secs   av.it.:  10.3
      thresh= 5.978E-04 alpha_mix =  0.700 |ddv_scf|^2 =  2.761E-04

      iter #   3 total cpu time :   814.2 secs   av.it.:   8.8
      thresh= 1.662E-03 alpha_mix =  0.700 |ddv_scf|^2 =  5.139E-08

      iter #   4 total cpu time :   827.2 secs   av.it.:  10.4
      thresh= 2.267E-05 alpha_mix =  0.700 |ddv_scf|^2 =  1.066E-09

      iter #   5 total cpu time :   840.0 secs   av.it.:  10.4
      thresh= 3.265E-06 alpha_mix =  0.700 |ddv_scf|^2 =  1.061E-11

      iter #   6 total cpu time :   853.9 secs   av.it.:  11.0
      thresh= 3.258E-07 alpha_mix =  0.700 |ddv_scf|^2 =  8.893E-13

      iter #   7 total cpu time :   867.4 secs   av.it.:  10.9
      thresh= 9.430E-08 alpha_mix =  0.700 |ddv_scf|^2 =  2.761E-13

      iter #   8 total cpu time :   879.6 secs   av.it.:   9.8
      thresh= 5.255E-08 alpha_mix =  0.700 |ddv_scf|^2 =  2.103E-13

      iter #   9 total cpu time :   891.8 secs   av.it.:   9.6
      thresh= 4.586E-08 alpha_mix =  0.700 |ddv_scf|^2 =  9.082E-14

      iter #  10 total cpu time :   903.4 secs   av.it.:   9.2
      thresh= 3.014E-08 alpha_mix =  0.700 |ddv_scf|^2 =  3.577E-16

     End of self-consistent calculation

     Convergence has been achieved 


     Representation #   2 mode #   2

     Self-consistent Calculation

      iter #   1 total cpu time :   913.5 secs   av.it.:   6.6
      thresh= 1.000E-02 alpha_mix =  0.700 |ddv_scf|^2 =  3.573E-05

      iter #   2 total cpu time :   926.3 secs   av.it.:  10.3
      thresh= 5.978E-04 alpha_mix =  0.700 |ddv_scf|^2 =  2.761E-04

      iter #   3 total cpu time :   937.7 secs   av.it.:   8.8
      thresh= 1.662E-03 alpha_mix =  0.700 |ddv_scf|^2 =  5.139E-08

      iter #   4 total cpu time :   951.3 secs   av.it.:  10.4
      thresh= 2.267E-05 alpha_mix =  0.700 |ddv_scf|^2 =  1.066E-09

      iter #   5 total cpu time :   964.7 secs   av.it.:  10.4
      thresh= 3.265E-06 alpha_mix =  0.700 |ddv_scf|^2 =  1.061E-11

      iter #   6 total cpu time :   978.1 secs   av.it.:  11.0
      thresh= 3.258E-07 alpha_mix =  0.700 |ddv_scf|^2 =  8.878E-13

      iter #   7 total cpu time :   991.5 secs   av.it.:  10.9
      thresh= 9.422E-08 alpha_mix =  0.700 |ddv_scf|^2 =  2.706E-13

      iter #   8 total cpu time :  1003.8 secs   av.it.:   9.8
      thresh= 5.202E-08 alpha_mix =  0.700 |ddv_scf|^2 =  2.100E-13

      iter #   9 total cpu time :  1015.9 secs   av.it.:   9.6
      thresh= 4.583E-08 alpha_mix =  0.700 |ddv_scf|^2 =  8.946E-14

      iter #  10 total cpu time :  1027.6 secs   av.it.:   9.2
      thresh= 2.991E-08 alpha_mix =  0.700 |ddv_scf|^2 =  3.540E-16

     End of self-consistent calculation

     Convergence has been achieved 


     Representation #   3 modes #   3   4

     Self-consistent Calculation

      iter #   1 total cpu time :  1045.8 secs   av.it.:   6.1
      thresh= 1.000E-02 alpha_mix =  0.700 |ddv_scf|^2 =  1.964E-08

      iter #   2 total cpu time :  1074.6 secs   av.it.:  11.9
      thresh= 1.401E-05 alpha_mix =  0.700 |ddv_scf|^2 =  1.319E-09

      iter #   3 total cpu time :  1103.0 secs   av.it.:  11.7
      thresh= 3.632E-06 alpha_mix =  0.700 |ddv_scf|^2 =  2.257E-11

      iter #   4 total cpu time :  1131.6 secs   av.it.:  11.8
      thresh= 4.751E-07 alpha_mix =  0.700 |ddv_scf|^2 =  1.968E-13

      iter #   5 total cpu time :  1160.1 secs   av.it.:  11.8
      thresh= 4.436E-08 alpha_mix =  0.700 |ddv_scf|^2 =  6.100E-15

      iter #   6 total cpu time :  1189.1 secs   av.it.:  12.0
      thresh= 7.811E-09 alpha_mix =  0.700 |ddv_scf|^2 =  9.180E-17

     End of self-consistent calculation

     Convergence has been achieved 


     Representation #   4 modes #   5   6

     Self-consistent Calculation

      iter #   1 total cpu time :  1206.9 secs   av.it.:   5.9
      thresh= 1.000E-02 alpha_mix =  0.700 |ddv_scf|^2 =  1.962E-08

      iter #   2 total cpu time :  1235.3 secs   av.it.:  11.6
      thresh= 1.401E-05 alpha_mix =  0.700 |ddv_scf|^2 =  1.315E-09

      iter #   3 total cpu time :  1263.0 secs   av.it.:  11.3
      thresh= 3.626E-06 alpha_mix =  0.700 |ddv_scf|^2 =  2.259E-11

      iter #   4 total cpu time :  1291.7 secs   av.it.:  11.5
      thresh= 4.753E-07 alpha_mix =  0.700 |ddv_scf|^2 =  1.966E-13

      iter #   5 total cpu time :  1319.7 secs   av.it.:  11.5
      thresh= 4.434E-08 alpha_mix =  0.700 |ddv_scf|^2 =  6.104E-15

      iter #   6 total cpu time :  1348.1 secs   av.it.:  11.7
      thresh= 7.813E-09 alpha_mix =  0.700 |ddv_scf|^2 =  9.259E-17

     End of self-consistent calculation

     Convergence has been achieved 
 
     Number of q in the star =    8
     List of q in the star:
          1  -0.333333333   0.333333333  -0.333333333
          2   0.333333333   0.333333333   0.333333333
          3  -0.333333333  -0.333333333  -0.333333333
          4   0.333333333  -0.333333333   0.333333333
          5   0.333333333  -0.333333333  -0.333333333
          6   0.333333333   0.333333333  -0.333333333
          7  -0.333333333  -0.333333333   0.333333333
          8  -0.333333333   0.333333333   0.333333333

     Diagonalizing the dynamical matrix

     q = (   -0.333333333   0.333333333  -0.333333333 ) 

 **************************************************************************
     freq (    1) =       3.087011 [THz] =     102.971608 [cm-1]
     freq (    2) =       3.087011 [THz] =     102.971608 [cm-1]
     freq (    3) =       8.765052 [THz] =     292.370680 [cm-1]
     freq (    4) =      13.862641 [THz] =     462.407936 [cm-1]
     freq (    5) =      14.758174 [THz] =     492.279681 [cm-1]
     freq (    6) =      14.758174 [THz] =     492.279681 [cm-1]
 **************************************************************************

     Mode symmetry, C_3v (3m)   point group:

     freq (   1-   2) =        103.0  [cm-1]   --> E    L_3           
     freq (   3-   3) =        292.4  [cm-1]   --> A_1  L_1           
     freq (   4-   4) =        462.4  [cm-1]   --> A_1  L_1           
     freq (   5-   6) =        492.3  [cm-1]   --> E    L_3           

     Calculation of q =    0.5000000  -0.5000000   0.5000000
 
     Parallelization info
     --------------------
     sticks:   dense  smooth     PW     G-vecs:    dense   smooth      PW
     Min           7       7      2                  104      104      21
     Max           9       9      3                  108      108      27
     Sum         511     511    187                 7631     7631    1687
 

     Title: 
     default                                                                    


     bravais-lattice index     =            2
     lattice parameter (alat)  =      10.2620  a.u.
     unit-cell volume          =     270.1693 (a.u.)^3
     number of atoms/cell      =            2
     number of atomic types    =            1
     number of electrons       =         8.00
     number of Kohn-Sham states=            8
     kinetic-energy cutoff     =      35.0000  Ry
     charge density cutoff     =     140.0000  Ry
     Exchange-correlation= PBE
                           (   1   4   3   4   0   0   0)
     Non magnetic calculation with spin-orbit


     celldm(1)=  10.262000  celldm(2)=   0.000000  celldm(3)=   0.000000
     celldm(4)=   0.000000  celldm(5)=   0.000000  celldm(6)=   0.000000

     crystal axes: (cart. coord. in units of alat)
               a(1) = (  -0.500000   0.000000   0.500000 )  
               a(2) = (   0.000000   0.500000   0.500000 )  
               a(3) = (  -0.500000   0.500000   0.000000 )  

     reciprocal axes: (cart. coord. in units 2 pi/alat)
               b(1) = ( -1.000000 -1.000000  1.000000 )  
               b(2) = (  1.000000  1.000000  1.000000 )  
               b(3) = ( -1.000000  1.000000 -1.000000 )  


     PseudoPot. # 1 for Si read from file:
     /THL8/home/jwluo/filepool/pseudos/Si_r.upf
     MD5 check sum: 538a76d466da59d525cdbd01722ac2dd
     Pseudo is Norm-conserving + core correction, Zval =  4.0
     Generated using ONCVPSP code by D. R. Hamann
     Using radial grid of 1528 points, 10 beta functions with: 
                l(1) =   0
                l(2) =   0
                l(3) =   1
                l(4) =   1
                l(5) =   1
                l(6) =   1
                l(7) =   2
                l(8) =   2
                l(9) =   2
               l(10) =   2

     atomic species   valence    mass     pseudopotential
        Si             4.00    28.08550     Si( 1.00)

     48 Sym. Ops., with inversion, found



   Cartesian axes

     site n.     atom                  positions (alat units)
         1           Si  tau(   1) = (   0.0000000   0.0000000   0.0000000  )
         2           Si  tau(   2) = (   0.2500000   0.2500000   0.2500000  )

     number of k points=   378

     Number of k-points >= 100: set verbosity='high' to print them.

     Dense  grid:     7631 G-vectors     FFT dimensions: (  32,  32,  32)

     Estimated max dynamical RAM per process >       2.90 MB

     Estimated total dynamical RAM >     208.46 MB
     Message from routine sym_rho_init:
     some processors have no G-vectors for symmetrization
     Message from routine sym_rho_init:
     some processors have no G-vectors for symmetrization
     Message from routine sym_rho_init:
     some processors have no G-vectors for symmetrization
     Message from routine sym_rho_init:
     some processors have no G-vectors for symmetrization
     Message from routine sym_rho_init:
     some processors have no G-vectors for symmetrization
     Message from routine sym_rho_init:
     some processors have no G-vectors for symmetrization
     Message from routine sym_rho_init:
     some processors have no G-vectors for symmetrization
     Message from routine sym_rho_init:
     some processors have no G-vectors for symmetrization
     Message from routine sym_rho_init:
     some processors have no G-vectors for symmetrization
     Message from routine sym_rho_init:
     some processors have no G-vectors for symmetrization
     Message from routine sym_rho_init:
     some processors have no G-vectors for symmetrization
     Message from routine sym_rho_init:
     some processors have no G-vectors for symmetrization
     Message from routine sym_rho_init:
     some processors have no G-vectors for symmetrization
     Message from routine sym_rho_init:
     some processors have no G-vectors for symmetrization
     Message from routine sym_rho_init:
     some processors have no G-vectors for symmetrization
     Message from routine sym_rho_init:
     some processors have no G-vectors for symmetrization
     Message from routine sym_rho_init:
     some processors have no G-vectors for symmetrization
     Message from routine sym_rho_init:
     some processors have no G-vectors for symmetrization
     Message from routine sym_rho_init:
     some processors have no G-vectors for symmetrization
     Message from routine sym_rho_init:
     some processors have no G-vectors for symmetrization
     Message from routine sym_rho_init:
     some processors have no G-vectors for symmetrization
     Message from routine sym_rho_init:
     some processors have no G-vectors for symmetrization
     Message from routine sym_rho_init:
     some processors have no G-vectors for symmetrization

     The potential is recalculated from file :
     ./_ph0/si.q_4/si.save/charge-density

     Starting wfcs are   16 atomic wfcs

     Band Structure Calculation
     Davidson diagonalization with overlap

     ethr =  1.25E-10,  avg # of iterations = 12.5

     total cpu time spent up to now is       80.3 secs

     End of band structure calculation

     Number of k-points >= 100: set verbosity='high' to print the bands.

     highest occupied level (ev):     6.2480

     Writing output data file ./_ph0/si.q_4/si.save/

     default                                                                    

     bravais-lattice index     =            2
     lattice parameter (alat)  =      10.2620  a.u.
     unit-cell volume          =     270.1693 (a.u.)^3
     number of atoms/cell      =            2
     number of atomic types    =            1
     kinetic-energy cut-off    =      35.0000  Ry
     charge density cut-off    =     140.0000  Ry
     convergence threshold     =      1.0E-14
     beta                      =       0.7000
     number of iterations used =            4
     Exchange-correlation= PBE
                           (   1   4   3   4   0   0   0)
     Non magnetic calculation with spin-orbit

     celldm(1)=   10.26200  celldm(2)=    0.00000  celldm(3)=    0.00000
     celldm(4)=    0.00000  celldm(5)=    0.00000  celldm(6)=    0.00000

     crystal axes: (cart. coord. in units of alat)
               a(1) = ( -0.5000  0.0000  0.5000 )  
               a(2) = (  0.0000  0.5000  0.5000 )  
               a(3) = ( -0.5000  0.5000  0.0000 )  

     reciprocal axes: (cart. coord. in units 2 pi/alat)
               b(1) = ( -1.0000 -1.0000  1.0000 )  
               b(2) = (  1.0000  1.0000  1.0000 )  
               b(3) = ( -1.0000  1.0000 -1.0000 )  


     Atoms inside the unit cell: 

     Cartesian axes

     site n.  atom      mass           positions (alat units)
        1     Si  28.0855   tau(    1) = (    0.00000    0.00000    0.00000  )
        2     Si  28.0855   tau(    2) = (    0.25000    0.25000    0.25000  )

     Computing dynamical matrix for 
                    q = (   0.5000000  -0.5000000   0.5000000 )
 
     13 Sym.Ops. (with q -> -q+G )


     G cutoff =  373.4499  (    107 G-vectors)     FFT grid: ( 32, 32, 32)
     number of k points=   378

     PseudoPot. # 1 for Si read from file:
     /THL8/home/jwluo/filepool/pseudos/Si_r.upf
     MD5 check sum: 538a76d466da59d525cdbd01722ac2dd
     Pseudo is Norm-conserving + core correction, Zval =  4.0
     Generated using ONCVPSP code by D. R. Hamann
     Using radial grid of 1528 points, 10 beta functions with: 
                l(1) =   0
                l(2) =   0
                l(3) =   1
                l(4) =   1
                l(5) =   1
                l(6) =   1
                l(7) =   2
                l(8) =   2
                l(9) =   2
               l(10) =   2


     Atomic displacements:
     There are    4 irreducible representations

     Representation     1      1 modes -  To be done

     Representation     2      1 modes -  To be done

     Representation     3      2 modes -  To be done

     Representation     4      2 modes -  To be done



     Alpha used in Ewald sum =   1.5000
     PHONON       :  21m56.97s CPU  22m46.87s WALL



     Representation #   1 mode #   1

     Self-consistent Calculation

      iter #   1 total cpu time :  1371.6 secs   av.it.:   5.8
      thresh= 1.000E-02 alpha_mix =  0.700 |ddv_scf|^2 =  1.157E-06

      iter #   2 total cpu time :  1378.5 secs   av.it.:  10.5
      thresh= 1.076E-04 alpha_mix =  0.700 |ddv_scf|^2 =  1.027E-06

      iter #   3 total cpu time :  1385.0 secs   av.it.:   9.8
      thresh= 1.013E-04 alpha_mix =  0.700 |ddv_scf|^2 =  1.666E-10

      iter #   4 total cpu time :  1391.8 secs   av.it.:  10.6
      thresh= 1.291E-06 alpha_mix =  0.700 |ddv_scf|^2 =  3.071E-12

      iter #   5 total cpu time :  1398.5 secs   av.it.:  10.3
      thresh= 1.752E-07 alpha_mix =  0.700 |ddv_scf|^2 =  6.021E-14

      iter #   6 total cpu time :  1405.1 secs   av.it.:  10.1
      thresh= 2.454E-08 alpha_mix =  0.700 |ddv_scf|^2 =  6.183E-16

     End of self-consistent calculation

     Convergence has been achieved 


     Representation #   2 mode #   2

     Self-consistent Calculation

      iter #   1 total cpu time :  1410.6 secs   av.it.:   6.7
      thresh= 1.000E-02 alpha_mix =  0.700 |ddv_scf|^2 =  1.744E-05

      iter #   2 total cpu time :  1417.5 secs   av.it.:  10.6
      thresh= 4.176E-04 alpha_mix =  0.700 |ddv_scf|^2 =  5.558E-05

      iter #   3 total cpu time :  1424.1 secs   av.it.:   9.6
      thresh= 7.455E-04 alpha_mix =  0.700 |ddv_scf|^2 =  3.487E-09

      iter #   4 total cpu time :  1431.2 secs   av.it.:  10.3
      thresh= 5.905E-06 alpha_mix =  0.700 |ddv_scf|^2 =  9.164E-11

      iter #   5 total cpu time :  1438.1 secs   av.it.:  10.6
      thresh= 9.573E-07 alpha_mix =  0.700 |ddv_scf|^2 =  8.629E-12

      iter #   6 total cpu time :  1444.7 secs   av.it.:  10.2
      thresh= 2.938E-07 alpha_mix =  0.700 |ddv_scf|^2 =  2.349E-14

      iter #   7 total cpu time :  1451.3 secs   av.it.:  10.2
      thresh= 1.533E-08 alpha_mix =  0.700 |ddv_scf|^2 =  6.043E-16

     End of self-consistent calculation

     Convergence has been achieved 


     Representation #   3 modes #   3   4

     Self-consistent Calculation

      iter #   1 total cpu time :  1461.1 secs   av.it.:   6.1
      thresh= 1.000E-02 alpha_mix =  0.700 |ddv_scf|^2 =  3.979E-08

      iter #   2 total cpu time :  1476.0 secs   av.it.:  11.7
      thresh= 1.995E-05 alpha_mix =  0.700 |ddv_scf|^2 =  3.227E-09

      iter #   3 total cpu time :  1490.5 secs   av.it.:  11.5
      thresh= 5.681E-06 alpha_mix =  0.700 |ddv_scf|^2 =  2.557E-11

      iter #   4 total cpu time :  1505.0 secs   av.it.:  11.5
      thresh= 5.056E-07 alpha_mix =  0.700 |ddv_scf|^2 =  4.231E-14

      iter #   5 total cpu time :  1520.1 secs   av.it.:  11.7
      thresh= 2.057E-08 alpha_mix =  0.700 |ddv_scf|^2 =  1.115E-15

     End of self-consistent calculation

     Convergence has been achieved 


     Representation #   4 modes #   5   6

     Self-consistent Calculation

      iter #   1 total cpu time :  1529.5 secs   av.it.:   5.6
      thresh= 1.000E-02 alpha_mix =  0.700 |ddv_scf|^2 =  4.312E-09

      iter #   2 total cpu time :  1544.4 secs   av.it.:  11.7
      thresh= 6.566E-06 alpha_mix =  0.700 |ddv_scf|^2 =  1.315E-10

      iter #   3 total cpu time :  1559.0 secs   av.it.:  11.5
      thresh= 1.147E-06 alpha_mix =  0.700 |ddv_scf|^2 =  8.043E-12

      iter #   4 total cpu time :  1573.7 secs   av.it.:  11.6
      thresh= 2.836E-07 alpha_mix =  0.700 |ddv_scf|^2 =  3.936E-14

      iter #   5 total cpu time :  1588.3 secs   av.it.:  11.6
      thresh= 1.984E-08 alpha_mix =  0.700 |ddv_scf|^2 =  9.853E-16

     End of self-consistent calculation

     Convergence has been achieved 
 
     Number of q in the star =    4
     List of q in the star:
          1   0.500000000  -0.500000000   0.500000000
          2   0.500000000   0.500000000   0.500000000
          3  -0.500000000   0.500000000   0.500000000
          4   0.500000000   0.500000000  -0.500000000

     Diagonalizing the dynamical matrix

     q = (    0.500000000  -0.500000000   0.500000000 ) 

 **************************************************************************
     freq (    1) =       3.219390 [THz] =     107.387286 [cm-1]
     freq (    2) =       3.219390 [THz] =     107.387286 [cm-1]
     freq (    3) =      11.180595 [THz] =     372.944496 [cm-1]
     freq (    4) =      12.405474 [THz] =     413.802074 [cm-1]
     freq (    5) =      14.697322 [THz] =     490.249904 [cm-1]
     freq (    6) =      14.697322 [THz] =     490.249904 [cm-1]
 **************************************************************************

     Calculation of q =    0.0000000   0.3333333   0.0000000
 
     Parallelization info
     --------------------
     sticks:   dense  smooth     PW     G-vecs:    dense   smooth      PW
     Min           7       7      2                  104      104      19
     Max           9       9      3                  108      108      23
     Sum         511     511    163                 7631     7631    1459
 

     Title: 
     default                                                                    


     bravais-lattice index     =            2
     lattice parameter (alat)  =      10.2620  a.u.
     unit-cell volume          =     270.1693 (a.u.)^3
     number of atoms/cell      =            2
     number of atomic types    =            1
     number of electrons       =         8.00
     number of Kohn-Sham states=            8
     kinetic-energy cutoff     =      35.0000  Ry
     charge density cutoff     =     140.0000  Ry
     Exchange-correlation= PBE
                           (   1   4   3   4   0   0   0)
     Non magnetic calculation with spin-orbit


     celldm(1)=  10.262000  celldm(2)=   0.000000  celldm(3)=   0.000000
     celldm(4)=   0.000000  celldm(5)=   0.000000  celldm(6)=   0.000000

     crystal axes: (cart. coord. in units of alat)
               a(1) = (  -0.500000   0.000000   0.500000 )  
               a(2) = (   0.000000   0.500000   0.500000 )  
               a(3) = (  -0.500000   0.500000   0.000000 )  

     reciprocal axes: (cart. coord. in units 2 pi/alat)
               b(1) = ( -1.000000 -1.000000  1.000000 )  
               b(2) = (  1.000000  1.000000  1.000000 )  
               b(3) = ( -1.000000  1.000000 -1.000000 )  


     PseudoPot. # 1 for Si read from file:
     /THL8/home/jwluo/filepool/pseudos/Si_r.upf
     MD5 check sum: 538a76d466da59d525cdbd01722ac2dd
     Pseudo is Norm-conserving + core correction, Zval =  4.0
     Generated using ONCVPSP code by D. R. Hamann
     Using radial grid of 1528 points, 10 beta functions with: 
                l(1) =   0
                l(2) =   0
                l(3) =   1
                l(4) =   1
                l(5) =   1
                l(6) =   1
                l(7) =   2
                l(8) =   2
                l(9) =   2
               l(10) =   2

     atomic species   valence    mass     pseudopotential
        Si             4.00    28.08550     Si( 1.00)

     48 Sym. Ops., with inversion, found



   Cartesian axes

     site n.     atom                  positions (alat units)
         1           Si  tau(   1) = (   0.0000000   0.0000000   0.0000000  )
         2           Si  tau(   2) = (   0.2500000   0.2500000   0.2500000  )

     number of k points=   588

     Number of k-points >= 100: set verbosity='high' to print them.

     Dense  grid:     7631 G-vectors     FFT dimensions: (  32,  32,  32)

     Estimated max dynamical RAM per process >       2.83 MB

     Estimated total dynamical RAM >     203.48 MB
     Message from routine sym_rho_init:
     some processors have no G-vectors for symmetrization
     Message from routine sym_rho_init:
     some processors have no G-vectors for symmetrization
     Message from routine sym_rho_init:
     some processors have no G-vectors for symmetrization
     Message from routine sym_rho_init:
     some processors have no G-vectors for symmetrization
     Message from routine sym_rho_init:
     some processors have no G-vectors for symmetrization
     Message from routine sym_rho_init:
     some processors have no G-vectors for symmetrization
     Message from routine sym_rho_init:
     some processors have no G-vectors for symmetrization
     Message from routine sym_rho_init:
     some processors have no G-vectors for symmetrization
     Message from routine sym_rho_init:
     some processors have no G-vectors for symmetrization
     Message from routine sym_rho_init:
     some processors have no G-vectors for symmetrization
     Message from routine sym_rho_init:
     some processors have no G-vectors for symmetrization
     Message from routine sym_rho_init:
     some processors have no G-vectors for symmetrization
     Message from routine sym_rho_init:
     some processors have no G-vectors for symmetrization
     Message from routine sym_rho_init:
     some processors have no G-vectors for symmetrization
     Message from routine sym_rho_init:
     some processors have no G-vectors for symmetrization
     Message from routine sym_rho_init:
     some processors have no G-vectors for symmetrization
     Message from routine sym_rho_init:
     some processors have no G-vectors for symmetrization
     Message from routine sym_rho_init:
     some processors have no G-vectors for symmetrization
     Message from routine sym_rho_init:
     some processors have no G-vectors for symmetrization
     Message from routine sym_rho_init:
     some processors have no G-vectors for symmetrization
     Message from routine sym_rho_init:
     some processors have no G-vectors for symmetrization
     Message from routine sym_rho_init:
     some processors have no G-vectors for symmetrization
     Message from routine sym_rho_init:
     some processors have no G-vectors for symmetrization
     Message from routine sym_rho_init:
     some processors have no G-vectors for symmetrization
     Message from routine sym_rho_init:
     some processors have no G-vectors for symmetrization
     Message from routine sym_rho_init:
     some processors have no G-vectors for symmetrization
     Message from routine sym_rho_init:
     some processors have no G-vectors for symmetrization

     The potential is recalculated from file :
     ./_ph0/si.q_5/si.save/charge-density

     Starting wfcs are   16 atomic wfcs

     Band Structure Calculation
     Davidson diagonalization with overlap

     ethr =  1.25E-10,  avg # of iterations = 12.4

     total cpu time spent up to now is      105.5 secs

     End of band structure calculation

     Number of k-points >= 100: set verbosity='high' to print the bands.

     highest occupied level (ev):     6.2480

     Writing output data file ./_ph0/si.q_5/si.save/

     default                                                                    

     bravais-lattice index     =            2
     lattice parameter (alat)  =      10.2620  a.u.
     unit-cell volume          =     270.1693 (a.u.)^3
     number of atoms/cell      =            2
     number of atomic types    =            1
     kinetic-energy cut-off    =      35.0000  Ry
     charge density cut-off    =     140.0000  Ry
     convergence threshold     =      1.0E-14
     beta                      =       0.7000
     number of iterations used =            4
     Exchange-correlation= PBE
                           (   1   4   3   4   0   0   0)
     Non magnetic calculation with spin-orbit

     celldm(1)=   10.26200  celldm(2)=    0.00000  celldm(3)=    0.00000
     celldm(4)=    0.00000  celldm(5)=    0.00000  celldm(6)=    0.00000

     crystal axes: (cart. coord. in units of alat)
               a(1) = ( -0.5000  0.0000  0.5000 )  
               a(2) = (  0.0000  0.5000  0.5000 )  
               a(3) = ( -0.5000  0.5000  0.0000 )  

     reciprocal axes: (cart. coord. in units 2 pi/alat)
               b(1) = ( -1.0000 -1.0000  1.0000 )  
               b(2) = (  1.0000  1.0000  1.0000 )  
               b(3) = ( -1.0000  1.0000 -1.0000 )  


     Atoms inside the unit cell: 

     Cartesian axes

     site n.  atom      mass           positions (alat units)
        1     Si  28.0855   tau(    1) = (    0.00000    0.00000    0.00000  )
        2     Si  28.0855   tau(    2) = (    0.25000    0.25000    0.25000  )

     Computing dynamical matrix for 
                    q = (   0.0000000   0.3333333   0.0000000 )
 
      8 Sym.Ops. (no q -> -q+G )


     G cutoff =  373.4499  (    107 G-vectors)     FFT grid: ( 32, 32, 32)
     number of k points=   588

     PseudoPot. # 1 for Si read from file:
     /THL8/home/jwluo/filepool/pseudos/Si_r.upf
     MD5 check sum: 538a76d466da59d525cdbd01722ac2dd
     Pseudo is Norm-conserving + core correction, Zval =  4.0
     Generated using ONCVPSP code by D. R. Hamann
     Using radial grid of 1528 points, 10 beta functions with: 
                l(1) =   0
                l(2) =   0
                l(3) =   1
                l(4) =   1
                l(5) =   1
                l(6) =   1
                l(7) =   2
                l(8) =   2
                l(9) =   2
               l(10) =   2

     Mode symmetry, C_4v (4mm)  point group:


     Atomic displacements:
     There are    4 irreducible representations

     Representation     1      1 modes -  To be done

     Representation     2      1 modes -  To be done

     Representation     3      2 modes -  To be done

     Representation     4      2 modes -  To be done



     Alpha used in Ewald sum =   1.5000
     PHONON       :  25m58.33s CPU  26m57.07s WALL



     Representation #   1 mode #   1

     Self-consistent Calculation

      iter #   1 total cpu time :  1625.2 secs   av.it.:   6.6
      thresh= 1.000E-02 alpha_mix =  0.700 |ddv_scf|^2 =  7.456E-04

      iter #   2 total cpu time :  1634.9 secs   av.it.:   9.5
      thresh= 2.731E-03 alpha_mix =  0.700 |ddv_scf|^2 =  2.155E-02

      iter #   3 total cpu time :  1643.3 secs   av.it.:   7.9
      thresh= 1.000E-02 alpha_mix =  0.700 |ddv_scf|^2 =  2.278E-08

      iter #   4 total cpu time :  1653.1 secs   av.it.:   9.3
      thresh= 1.509E-05 alpha_mix =  0.700 |ddv_scf|^2 =  6.319E-10

      iter #   5 total cpu time :  1662.4 secs   av.it.:   9.1
      thresh= 2.514E-06 alpha_mix =  0.700 |ddv_scf|^2 =  2.680E-10

      iter #   6 total cpu time :  1671.3 secs   av.it.:   8.7
      thresh= 1.637E-06 alpha_mix =  0.700 |ddv_scf|^2 =  2.740E-13

      iter #   7 total cpu time :  1680.9 secs   av.it.:   9.2
      thresh= 5.234E-08 alpha_mix =  0.700 |ddv_scf|^2 =  1.471E-14

      iter #   8 total cpu time :  1689.9 secs   av.it.:   8.7
      thresh= 1.213E-08 alpha_mix =  0.700 |ddv_scf|^2 =  4.330E-16

     End of self-consistent calculation

     Convergence has been achieved 


     Representation #   2 mode #   2

     Self-consistent Calculation

      iter #   1 total cpu time :  1697.3 secs   av.it.:   5.8
      thresh= 1.000E-02 alpha_mix =  0.700 |ddv_scf|^2 =  1.158E-07

      iter #   2 total cpu time :  1707.9 secs   av.it.:  10.8
      thresh= 3.403E-05 alpha_mix =  0.700 |ddv_scf|^2 =  1.809E-08

      iter #   3 total cpu time :  1718.4 secs   av.it.:  10.5
      thresh= 1.345E-05 alpha_mix =  0.700 |ddv_scf|^2 =  2.261E-10

      iter #   4 total cpu time :  1729.0 secs   av.it.:  10.6
      thresh= 1.504E-06 alpha_mix =  0.700 |ddv_scf|^2 =  1.029E-11

      iter #   5 total cpu time :  1739.5 secs   av.it.:  10.6
      thresh= 3.208E-07 alpha_mix =  0.700 |ddv_scf|^2 =  3.928E-14

      iter #   6 total cpu time :  1750.0 secs   av.it.:  10.7
      thresh= 1.982E-08 alpha_mix =  0.700 |ddv_scf|^2 =  1.016E-15

     End of self-consistent calculation

     Convergence has been achieved 


     Representation #   3 modes #   3   4

     Self-consistent Calculation

      iter #   1 total cpu time :  1765.4 secs   av.it.:   6.1
      thresh= 1.000E-02 alpha_mix =  0.700 |ddv_scf|^2 =  2.800E-08

      iter #   2 total cpu time :  1788.3 secs   av.it.:  11.8
      thresh= 1.673E-05 alpha_mix =  0.700 |ddv_scf|^2 =  2.526E-09

      iter #   3 total cpu time :  1811.0 secs   av.it.:  11.5
      thresh= 5.026E-06 alpha_mix =  0.700 |ddv_scf|^2 =  2.594E-11

      iter #   4 total cpu time :  1833.6 secs   av.it.:  11.7
      thresh= 5.093E-07 alpha_mix =  0.700 |ddv_scf|^2 =  2.155E-13

      iter #   5 total cpu time :  1856.3 secs   av.it.:  11.6
      thresh= 4.642E-08 alpha_mix =  0.700 |ddv_scf|^2 =  5.987E-15

      iter #   6 total cpu time :  1879.4 secs   av.it.:  12.0
      thresh= 7.738E-09 alpha_mix =  0.700 |ddv_scf|^2 =  7.278E-17

     End of self-consistent calculation

     Convergence has been achieved 


     Representation #   4 modes #   5   6

     Self-consistent Calculation

      iter #   1 total cpu time :  1894.3 secs   av.it.:   6.0
      thresh= 1.000E-02 alpha_mix =  0.700 |ddv_scf|^2 =  1.946E-08

      iter #   2 total cpu time :  1917.2 secs   av.it.:  11.8
      thresh= 1.395E-05 alpha_mix =  0.700 |ddv_scf|^2 =  1.706E-09

      iter #   3 total cpu time :  1939.7 secs   av.it.:  11.5
      thresh= 4.131E-06 alpha_mix =  0.700 |ddv_scf|^2 =  2.542E-11

      iter #   4 total cpu time :  1962.5 secs   av.it.:  11.7
      thresh= 5.042E-07 alpha_mix =  0.700 |ddv_scf|^2 =  1.746E-13

      iter #   5 total cpu time :  1985.2 secs   av.it.:  11.6
      thresh= 4.178E-08 alpha_mix =  0.700 |ddv_scf|^2 =  6.200E-15

      iter #   6 total cpu time :  2008.4 secs   av.it.:  11.9
      thresh= 7.874E-09 alpha_mix =  0.700 |ddv_scf|^2 =  6.356E-17

     End of self-consistent calculation

     Convergence has been achieved 
 
     Number of q in the star =    6
     List of q in the star:
          1   0.000000000   0.333333333   0.000000000
          2   0.333333333   0.000000000   0.000000000
          3   0.000000000   0.000000000   0.333333333
          4   0.000000000  -0.333333333   0.000000000
          5  -0.333333333   0.000000000   0.000000000
          6   0.000000000   0.000000000  -0.333333333

     Diagonalizing the dynamical matrix

     q = (    0.000000000   0.333333333   0.000000000 ) 

 **************************************************************************
     freq (    1) =       2.965544 [THz] =      98.919892 [cm-1]
     freq (    2) =       2.965544 [THz] =      98.919892 [cm-1]
     freq (    3) =       4.960368 [THz] =     165.460073 [cm-1]
     freq (    4) =      14.673208 [THz] =     489.445549 [cm-1]
     freq (    5) =      14.673208 [THz] =     489.445549 [cm-1]
     freq (    6) =      15.138975 [THz] =     504.981833 [cm-1]
 **************************************************************************

     Mode symmetry, C_4v (4mm)  point group:

     freq (   1-   2) =         98.9  [cm-1]   --> E    G_5 D_5       
     freq (   3-   3) =        165.5  [cm-1]   --> A_1  G_1 D_1       
     freq (   4-   5) =        489.4  [cm-1]   --> E    G_5 D_5       
     freq (   6-   6) =        505.0  [cm-1]   --> B_2  G_4 D_2'      

     Calculation of q =   -0.1666667   0.5000000  -0.1666667
 
     Parallelization info
     --------------------
     sticks:   dense  smooth     PW     G-vecs:    dense   smooth      PW
     Min           7       7      2                  104      104      21
     Max           9       9      3                  108      108      27
     Sum         511     511    187                 7631     7631    1639
 

     Title: 
     default                                                                    


     bravais-lattice index     =            2
     lattice parameter (alat)  =      10.2620  a.u.
     unit-cell volume          =     270.1693 (a.u.)^3
     number of atoms/cell      =            2
     number of atomic types    =            1
     number of electrons       =         8.00
     number of Kohn-Sham states=            8
     kinetic-energy cutoff     =      35.0000  Ry
     charge density cutoff     =     140.0000  Ry
     Exchange-correlation= PBE
                           (   1   4   3   4   0   0   0)
     Non magnetic calculation with spin-orbit


     celldm(1)=  10.262000  celldm(2)=   0.000000  celldm(3)=   0.000000
     celldm(4)=   0.000000  celldm(5)=   0.000000  celldm(6)=   0.000000

     crystal axes: (cart. coord. in units of alat)
               a(1) = (  -0.500000   0.000000   0.500000 )  
               a(2) = (   0.000000   0.500000   0.500000 )  
               a(3) = (  -0.500000   0.500000   0.000000 )  

     reciprocal axes: (cart. coord. in units 2 pi/alat)
               b(1) = ( -1.000000 -1.000000  1.000000 )  
               b(2) = (  1.000000  1.000000  1.000000 )  
               b(3) = ( -1.000000  1.000000 -1.000000 )  


     PseudoPot. # 1 for Si read from file:
     /THL8/home/jwluo/filepool/pseudos/Si_r.upf
     MD5 check sum: 538a76d466da59d525cdbd01722ac2dd
     Pseudo is Norm-conserving + core correction, Zval =  4.0
     Generated using ONCVPSP code by D. R. Hamann
     Using radial grid of 1528 points, 10 beta functions with: 
                l(1) =   0
                l(2) =   0
                l(3) =   1
                l(4) =   1
                l(5) =   1
                l(6) =   1
                l(7) =   2
                l(8) =   2
                l(9) =   2
               l(10) =   2

     atomic species   valence    mass     pseudopotential
        Si             4.00    28.08550     Si( 1.00)

     48 Sym. Ops., with inversion, found



   Cartesian axes

     site n.     atom                  positions (alat units)
         1           Si  tau(   1) = (   0.0000000   0.0000000   0.0000000  )
         2           Si  tau(   2) = (   0.2500000   0.2500000   0.2500000  )

     number of k points=  1872

     Number of k-points >= 100: set verbosity='high' to print them.

     Dense  grid:     7631 G-vectors     FFT dimensions: (  32,  32,  32)

     Estimated max dynamical RAM per process >       2.86 MB

     Estimated total dynamical RAM >     205.59 MB
     Message from routine sym_rho_init:
     some processors have no G-vectors for symmetrization
     Message from routine sym_rho_init:
     some processors have no G-vectors for symmetrization
     Message from routine sym_rho_init:
     some processors have no G-vectors for symmetrization
     Message from routine sym_rho_init:
     some processors have no G-vectors for symmetrization
     Message from routine sym_rho_init:
     some processors have no G-vectors for symmetrization
     Message from routine sym_rho_init:
     some processors have no G-vectors for symmetrization
     Message from routine sym_rho_init:
     some processors have no G-vectors for symmetrization
     Message from routine sym_rho_init:
     some processors have no G-vectors for symmetrization
     Message from routine sym_rho_init:
     some processors have no G-vectors for symmetrization
     Message from routine sym_rho_init:
     some processors have no G-vectors for symmetrization
     Message from routine sym_rho_init:
     some processors have no G-vectors for symmetrization
     Message from routine sym_rho_init:
     some processors have no G-vectors for symmetrization
     Message from routine sym_rho_init:
     some processors have no G-vectors for symmetrization
     Message from routine sym_rho_init:
     some processors have no G-vectors for symmetrization
     Message from routine sym_rho_init:
     some processors have no G-vectors for symmetrization
     Message from routine sym_rho_init:
     some processors have no G-vectors for symmetrization
     Message from routine sym_rho_init:
     some processors have no G-vectors for symmetrization
     Message from routine sym_rho_init:
     some processors have no G-vectors for symmetrization
     Message from routine sym_rho_init:
     some processors have no G-vectors for symmetrization
     Message from routine sym_rho_init:
     some processors have no G-vectors for symmetrization
     Message from routine sym_rho_init:
     some processors have no G-vectors for symmetrization
     Message from routine sym_rho_init:
     some processors have no G-vectors for symmetrization
     Message from routine sym_rho_init:
     some processors have no G-vectors for symmetrization
     Message from routine sym_rho_init:
     some processors have no G-vectors for symmetrization

     The potential is recalculated from file :
     ./_ph0/si.q_6/si.save/charge-density

     Starting wfcs are   16 atomic wfcs

     Band Structure Calculation
     Davidson diagonalization with overlap

     ethr =  1.25E-10,  avg # of iterations = 12.4

     total cpu time spent up to now is      186.6 secs

     End of band structure calculation

     Number of k-points >= 100: set verbosity='high' to print the bands.

     highest occupied level (ev):     6.2480

     Writing output data file ./_ph0/si.q_6/si.save/

     default                                                                    

     bravais-lattice index     =            2
     lattice parameter (alat)  =      10.2620  a.u.
     unit-cell volume          =     270.1693 (a.u.)^3
     number of atoms/cell      =            2
     number of atomic types    =            1
     kinetic-energy cut-off    =      35.0000  Ry
     charge density cut-off    =     140.0000  Ry
     convergence threshold     =      1.0E-14
     beta                      =       0.7000
     number of iterations used =            4
     Exchange-correlation= PBE
                           (   1   4   3   4   0   0   0)
     Non magnetic calculation with spin-orbit

     celldm(1)=   10.26200  celldm(2)=    0.00000  celldm(3)=    0.00000
     celldm(4)=    0.00000  celldm(5)=    0.00000  celldm(6)=    0.00000

     crystal axes: (cart. coord. in units of alat)
               a(1) = ( -0.5000  0.0000  0.5000 )  
               a(2) = (  0.0000  0.5000  0.5000 )  
               a(3) = ( -0.5000  0.5000  0.0000 )  

     reciprocal axes: (cart. coord. in units 2 pi/alat)
               b(1) = ( -1.0000 -1.0000  1.0000 )  
               b(2) = (  1.0000  1.0000  1.0000 )  
               b(3) = ( -1.0000  1.0000 -1.0000 )  


     Atoms inside the unit cell: 

     Cartesian axes

     site n.  atom      mass           positions (alat units)
        1     Si  28.0855   tau(    1) = (    0.00000    0.00000    0.00000  )
        2     Si  28.0855   tau(    2) = (    0.25000    0.25000    0.25000  )

     Computing dynamical matrix for 
                    q = (  -0.1666667   0.5000000  -0.1666667 )
 
      2 Sym.Ops. (no q -> -q+G )


     G cutoff =  373.4499  (    107 G-vectors)     FFT grid: ( 32, 32, 32)
     number of k points=  1872

     PseudoPot. # 1 for Si read from file:
     /THL8/home/jwluo/filepool/pseudos/Si_r.upf
     MD5 check sum: 538a76d466da59d525cdbd01722ac2dd
     Pseudo is Norm-conserving + core correction, Zval =  4.0
     Generated using ONCVPSP code by D. R. Hamann
     Using radial grid of 1528 points, 10 beta functions with: 
                l(1) =   0
                l(2) =   0
                l(3) =   1
                l(4) =   1
                l(5) =   1
                l(6) =   1
                l(7) =   2
                l(8) =   2
                l(9) =   2
               l(10) =   2

     Mode symmetry, C_s (m)     point group:


     Atomic displacements:
     There are    6 irreducible representations

     Representation     1      1 modes -  To be done

     Representation     2      1 modes -  To be done

     Representation     3      1 modes -  To be done

     Representation     4      1 modes -  To be done

     Representation     5      1 modes -  To be done

     Representation     6      1 modes -  To be done



     Alpha used in Ewald sum =   1.5000
     PHONON       :  33m43.12s CPU  34m59.36s WALL



     Representation #   1 mode #   1

     Self-consistent Calculation

      iter #   1 total cpu time :  2123.9 secs   av.it.:   6.7
      thresh= 1.000E-02 alpha_mix =  0.700 |ddv_scf|^2 =  4.310E-05

      iter #   2 total cpu time :  2157.0 secs   av.it.:  10.4
      thresh= 6.565E-04 alpha_mix =  0.700 |ddv_scf|^2 =  4.512E-04

      iter #   3 total cpu time :  2186.0 secs   av.it.:   8.8
      thresh= 2.124E-03 alpha_mix =  0.700 |ddv_scf|^2 =  3.962E-08

      iter #   4 total cpu time :  2220.3 secs   av.it.:  10.8
      thresh= 1.990E-05 alpha_mix =  0.700 |ddv_scf|^2 =  1.717E-09

      iter #   5 total cpu time :  2253.7 secs   av.it.:  10.6
      thresh= 4.144E-06 alpha_mix =  0.700 |ddv_scf|^2 =  1.722E-11

      iter #   6 total cpu time :  2288.3 secs   av.it.:  11.1
      thresh= 4.150E-07 alpha_mix =  0.700 |ddv_scf|^2 =  1.816E-12

      iter #   7 total cpu time :  2323.0 secs   av.it.:  11.0
      thresh= 1.347E-07 alpha_mix =  0.700 |ddv_scf|^2 =  8.247E-13

      iter #   8 total cpu time :  2354.9 secs   av.it.:   9.9
      thresh= 9.081E-08 alpha_mix =  0.700 |ddv_scf|^2 =  1.906E-12

      iter #   9 total cpu time :  2385.2 secs   av.it.:   9.3
      thresh= 1.381E-07 alpha_mix =  0.700 |ddv_scf|^2 =  4.626E-13

      iter #  10 total cpu time :  2415.6 secs   av.it.:   9.4
      thresh= 6.801E-08 alpha_mix =  0.700 |ddv_scf|^2 =  5.761E-16

     End of self-consistent calculation

     Convergence has been achieved 


     Representation #   2 mode #   2

     Self-consistent Calculation

      iter #   1 total cpu time :  2440.5 secs   av.it.:   6.5
      thresh= 1.000E-02 alpha_mix =  0.700 |ddv_scf|^2 =  2.913E-05

      iter #   2 total cpu time :  2473.8 secs   av.it.:  10.4
      thresh= 5.398E-04 alpha_mix =  0.700 |ddv_scf|^2 =  3.038E-04

      iter #   3 total cpu time :  2502.7 secs   av.it.:   8.8
      thresh= 1.743E-03 alpha_mix =  0.700 |ddv_scf|^2 =  9.596E-09

      iter #   4 total cpu time :  2537.5 secs   av.it.:  11.1
      thresh= 9.796E-06 alpha_mix =  0.700 |ddv_scf|^2 =  8.036E-10

      iter #   5 total cpu time :  2571.5 secs   av.it.:  10.8
      thresh= 2.835E-06 alpha_mix =  0.700 |ddv_scf|^2 =  3.033E-11

      iter #   6 total cpu time :  2605.9 secs   av.it.:  10.9
      thresh= 5.507E-07 alpha_mix =  0.700 |ddv_scf|^2 =  2.009E-12

      iter #   7 total cpu time :  2640.4 secs   av.it.:  11.0
      thresh= 1.417E-07 alpha_mix =  0.700 |ddv_scf|^2 =  4.037E-14

      iter #   8 total cpu time :  2675.0 secs   av.it.:  11.0
      thresh= 2.009E-08 alpha_mix =  0.700 |ddv_scf|^2 =  2.280E-13

[...]
         15  -0.833333333   0.166666667  -0.500000000
         16   0.833333333  -0.500000000   0.166666667
         17   0.833333333   0.500000000  -0.166666667
         18  -0.833333333  -0.500000000  -0.166666667
         19  -0.833333333   0.500000000   0.166666667
         20   0.166666667  -0.500000000   0.833333333
         21  -0.166666667   0.500000000   0.833333333
         22   0.166666667   0.500000000  -0.833333333
         23  -0.166666667  -0.500000000  -0.833333333
         24  -0.500000000   0.833333333   0.166666667

     Diagonalizing the dynamical matrix

     q = (    0.500000000  -0.166666667   0.833333333 ) 

 **************************************************************************
     freq (    1) =       5.075838 [THz] =     169.311737 [cm-1]
     freq (    2) =       6.095950 [THz] =     203.339008 [cm-1]
     freq (    3) =       9.845980 [THz] =     328.426529 [cm-1]
     freq (    4) =      11.473589 [THz] =     382.717733 [cm-1]
     freq (    5) =      14.047231 [THz] =     468.565175 [cm-1]
     freq (    6) =      14.280506 [THz] =     476.346392 [cm-1]
 **************************************************************************

     Calculation of q =   -0.3333333  -1.0000000   0.0000000
 
     Parallelization info
     --------------------
     sticks:   dense  smooth     PW     G-vecs:    dense   smooth      PW
     Min           7       7      2                  104      104      22
     Max           9       9      3                  108      108      28
     Sum         511     511    199                 7631     7631    1807
 

     Title: 
     default                                                                    


     bravais-lattice index     =            2
     lattice parameter (alat)  =      10.2620  a.u.
     unit-cell volume          =     270.1693 (a.u.)^3
     number of atoms/cell      =            2
     number of atomic types    =            1
     number of electrons       =         8.00
     number of Kohn-Sham states=            8
     kinetic-energy cutoff     =      35.0000  Ry
     charge density cutoff     =     140.0000  Ry
     Exchange-correlation= PBE
                           (   1   4   3   4   0   0   0)
     Non magnetic calculation with spin-orbit


     celldm(1)=  10.262000  celldm(2)=   0.000000  celldm(3)=   0.000000
     celldm(4)=   0.000000  celldm(5)=   0.000000  celldm(6)=   0.000000

     crystal axes: (cart. coord. in units of alat)
               a(1) = (  -0.500000   0.000000   0.500000 )  
               a(2) = (   0.000000   0.500000   0.500000 )  
               a(3) = (  -0.500000   0.500000   0.000000 )  

     reciprocal axes: (cart. coord. in units 2 pi/alat)
               b(1) = ( -1.000000 -1.000000  1.000000 )  
               b(2) = (  1.000000  1.000000  1.000000 )  
               b(3) = ( -1.000000  1.000000 -1.000000 )  


     PseudoPot. # 1 for Si read from file:
     /THL8/home/jwluo/filepool/pseudos/Si_r.upf
     MD5 check sum: 538a76d466da59d525cdbd01722ac2dd
     Pseudo is Norm-conserving + core correction, Zval =  4.0
     Generated using ONCVPSP code by D. R. Hamann
     Using radial grid of 1528 points, 10 beta functions with: 
                l(1) =   0
                l(2) =   0
                l(3) =   1
                l(4) =   1
                l(5) =   1
                l(6) =   1
                l(7) =   2
                l(8) =   2
                l(9) =   2
               l(10) =   2

     atomic species   valence    mass     pseudopotential
        Si             4.00    28.08550     Si( 1.00)

     48 Sym. Ops., with inversion, found



   Cartesian axes

     site n.     atom                  positions (alat units)
         1           Si  tau(   1) = (   0.0000000   0.0000000   0.0000000  )
         2           Si  tau(   2) = (   0.2500000   0.2500000   0.2500000  )

     number of k points=  1020

     Number of k-points >= 100: set verbosity='high' to print them.

     Dense  grid:     7631 G-vectors     FFT dimensions: (  32,  32,  32)

     Estimated max dynamical RAM per process >       2.92 MB

     Estimated total dynamical RAM >     210.12 MB
     Message from routine sym_rho_init:
     some processors have no G-vectors for symmetrization
     Message from routine sym_rho_init:
     some processors have no G-vectors for symmetrization
     Message from routine sym_rho_init:
     some processors have no G-vectors for symmetrization
     Message from routine sym_rho_init:
     some processors have no G-vectors for symmetrization
     Message from routine sym_rho_init:
     some processors have no G-vectors for symmetrization
     Message from routine sym_rho_init:
     some processors have no G-vectors for symmetrization
     Message from routine sym_rho_init:
     some processors have no G-vectors for symmetrization
     Message from routine sym_rho_init:
     some processors have no G-vectors for symmetrization
     Message from routine sym_rho_init:
     some processors have no G-vectors for symmetrization
     Message from routine sym_rho_init:
     some processors have no G-vectors for symmetrization
     Message from routine sym_rho_init:
     some processors have no G-vectors for symmetrization
     Message from routine sym_rho_init:
     some processors have no G-vectors for symmetrization
     Message from routine sym_rho_init:
     some processors have no G-vectors for symmetrization
     Message from routine sym_rho_init:
     some processors have no G-vectors for symmetrization
     Message from routine sym_rho_init:
     some processors have no G-vectors for symmetrization
     Message from routine sym_rho_init:
     some processors have no G-vectors for symmetrization
     Message from routine sym_rho_init:
     some processors have no G-vectors for symmetrization
     Message from routine sym_rho_init:
     some processors have no G-vectors for symmetrization
     Message from routine sym_rho_init:
     some processors have no G-vectors for symmetrization
     Message from routine sym_rho_init:
     some processors have no G-vectors for symmetrization
     Message from routine sym_rho_init:
     some processors have no G-vectors for symmetrization
     Message from routine sym_rho_init:
     some processors have no G-vectors for symmetrization
     Message from routine sym_rho_init:
     some processors have no G-vectors for symmetrization
     Message from routine sym_rho_init:
     some processors have no G-vectors for symmetrization
     Message from routine sym_rho_init:
     some processors have no G-vectors for symmetrization
     Message from routine sym_rho_init:
     some processors have no G-vectors for symmetrization
     Message from routine sym_rho_init:
     some processors have no G-vectors for symmetrization
     Message from routine sym_rho_init:
     some processors have no G-vectors for symmetrization
     Message from routine sym_rho_init:
     some processors have no G-vectors for symmetrization

     The potential is recalculated from file :
     ./_ph0/si.q_16/si.save/charge-density

     Starting wfcs are   16 atomic wfcs

     Band Structure Calculation
     Davidson diagonalization with overlap

     ethr =  1.25E-10,  avg # of iterations = 12.4

     total cpu time spent up to now is      755.2 secs

     End of band structure calculation

     Number of k-points >= 100: set verbosity='high' to print the bands.

     highest occupied level (ev):     6.2480

     Writing output data file ./_ph0/si.q_16/si.save/

     default                                                                    

     bravais-lattice index     =            2
     lattice parameter (alat)  =      10.2620  a.u.
     unit-cell volume          =     270.1693 (a.u.)^3
     number of atoms/cell      =            2
     number of atomic types    =            1
     kinetic-energy cut-off    =      35.0000  Ry
     charge density cut-off    =     140.0000  Ry
     convergence threshold     =      1.0E-14
     beta                      =       0.7000
     number of iterations used =            4
     Exchange-correlation= PBE
                           (   1   4   3   4   0   0   0)
     Non magnetic calculation with spin-orbit

     celldm(1)=   10.26200  celldm(2)=    0.00000  celldm(3)=    0.00000
     celldm(4)=    0.00000  celldm(5)=    0.00000  celldm(6)=    0.00000

     crystal axes: (cart. coord. in units of alat)
               a(1) = ( -0.5000  0.0000  0.5000 )  
               a(2) = (  0.0000  0.5000  0.5000 )  
               a(3) = ( -0.5000  0.5000  0.0000 )  

     reciprocal axes: (cart. coord. in units 2 pi/alat)
               b(1) = ( -1.0000 -1.0000  1.0000 )  
               b(2) = (  1.0000  1.0000  1.0000 )  
               b(3) = ( -1.0000  1.0000 -1.0000 )  


     Atoms inside the unit cell: 

     Cartesian axes

     site n.  atom      mass           positions (alat units)
        1     Si  28.0855   tau(    1) = (    0.00000    0.00000    0.00000  )
        2     Si  28.0855   tau(    2) = (    0.25000    0.25000    0.25000  )

     Computing dynamical matrix for 
                    q = (  -0.3333333  -1.0000000   0.0000000 )
 
      4 Sym.Ops. (no q -> -q+G )


     G cutoff =  373.4499  (    107 G-vectors)     FFT grid: ( 32, 32, 32)
     number of k points=  1020

     PseudoPot. # 1 for Si read from file:
     /THL8/home/jwluo/filepool/pseudos/Si_r.upf
     MD5 check sum: 538a76d466da59d525cdbd01722ac2dd
     Pseudo is Norm-conserving + core correction, Zval =  4.0
     Generated using ONCVPSP code by D. R. Hamann
     Using radial grid of 1528 points, 10 beta functions with: 
                l(1) =   0
                l(2) =   0
                l(3) =   1
                l(4) =   1
                l(5) =   1
                l(6) =   1
                l(7) =   2
                l(8) =   2
                l(9) =   2
               l(10) =   2


     Atomic displacements:
     There are    3 irreducible representations

     Representation     1      2 modes -  To be done

     Representation     2      2 modes -  To be done

     Representation     3      2 modes -  To be done



     Alpha used in Ewald sum =   1.5000
     PHONON       :      3h38m CPU      3h46m WALL



     Representation #   1 modes #   1   2

     Self-consistent Calculation

      iter #   1 total cpu time : 13622.4 secs   av.it.:   6.2
      thresh= 1.000E-02 alpha_mix =  0.700 |ddv_scf|^2 =  3.331E-07

      iter #   2 total cpu time : 13662.4 secs   av.it.:  11.7
      thresh= 5.772E-05 alpha_mix =  0.700 |ddv_scf|^2 =  4.290E-07

      iter #   3 total cpu time : 13700.4 secs   av.it.:  11.1
      thresh= 6.550E-05 alpha_mix =  0.700 |ddv_scf|^2 =  1.041E-09

      iter #   4 total cpu time : 13739.0 secs   av.it.:  11.3
      thresh= 3.226E-06 alpha_mix =  0.700 |ddv_scf|^2 =  3.897E-11

      iter #   5 total cpu time : 13778.0 secs   av.it.:  11.4
      thresh= 6.243E-07 alpha_mix =  0.700 |ddv_scf|^2 =  7.139E-13

      iter #   6 total cpu time : 13818.1 secs   av.it.:  11.7
      thresh= 8.449E-08 alpha_mix =  0.700 |ddv_scf|^2 =  8.911E-15

      iter #   7 total cpu time : 13857.2 secs   av.it.:  11.5
      thresh= 9.440E-09 alpha_mix =  0.700 |ddv_scf|^2 =  5.874E-16

     End of self-consistent calculation

     Convergence has been achieved 


     Representation #   2 modes #   3   4

     Self-consistent Calculation

      iter #   1 total cpu time : 13884.3 secs   av.it.:   6.3
      thresh= 1.000E-02 alpha_mix =  0.700 |ddv_scf|^2 =  2.667E-07

      iter #   2 total cpu time : 13924.1 secs   av.it.:  11.7
      thresh= 5.165E-05 alpha_mix =  0.700 |ddv_scf|^2 =  1.869E-07

      iter #   3 total cpu time : 13962.5 secs   av.it.:  11.2
      thresh= 4.323E-05 alpha_mix =  0.700 |ddv_scf|^2 =  3.128E-09

      iter #   4 total cpu time : 14000.4 secs   av.it.:  11.1
      thresh= 5.593E-06 alpha_mix =  0.700 |ddv_scf|^2 =  3.709E-11

      iter #   5 total cpu time : 14039.2 secs   av.it.:  11.4
      thresh= 6.090E-07 alpha_mix =  0.700 |ddv_scf|^2 =  4.389E-13

      iter #   6 total cpu time : 14078.5 secs   av.it.:  11.5
      thresh= 6.625E-08 alpha_mix =  0.700 |ddv_scf|^2 =  8.482E-15

      iter #   7 total cpu time : 14117.7 secs   av.it.:  11.4
      thresh= 9.210E-09 alpha_mix =  0.700 |ddv_scf|^2 =  7.252E-16

     End of self-consistent calculation

     Convergence has been achieved 


     Representation #   3 modes #   5   6

     Self-consistent Calculation

      iter #   1 total cpu time : 14144.9 secs   av.it.:   6.3
      thresh= 1.000E-02 alpha_mix =  0.700 |ddv_scf|^2 =  3.497E-07

      iter #   2 total cpu time : 14184.8 secs   av.it.:  11.8
      thresh= 5.913E-05 alpha_mix =  0.700 |ddv_scf|^2 =  4.024E-07

      iter #   3 total cpu time : 14223.1 secs   av.it.:  11.1
      thresh= 6.344E-05 alpha_mix =  0.700 |ddv_scf|^2 =  2.162E-09

      iter #   4 total cpu time : 14261.8 secs   av.it.:  11.3
      thresh= 4.650E-06 alpha_mix =  0.700 |ddv_scf|^2 =  2.908E-11

      iter #   5 total cpu time : 14301.1 secs   av.it.:  11.5
      thresh= 5.393E-07 alpha_mix =  0.700 |ddv_scf|^2 =  3.375E-13

      iter #   6 total cpu time : 14340.8 secs   av.it.:  11.6
      thresh= 5.809E-08 alpha_mix =  0.700 |ddv_scf|^2 =  7.096E-15

      iter #   7 total cpu time : 14379.8 secs   av.it.:  11.5
      thresh= 8.424E-09 alpha_mix =  0.700 |ddv_scf|^2 =  5.618E-16

     End of self-consistent calculation

     Convergence has been achieved 
 
     Number of q in the star =   12
     List of q in the star:
          1  -0.333333333  -1.000000000   0.000000000
          2   0.000000000  -1.000000000  -0.333333333
          3   0.000000000  -1.000000000   0.333333333
          4   0.333333333  -1.000000000   0.000000000
          5  -1.000000000   0.000000000  -0.333333333
          6   1.000000000   0.000000000   0.333333333
          7   0.000000000   0.333333333   1.000000000
          8   0.000000000  -0.333333333  -1.000000000
          9  -1.000000000  -0.333333333   0.000000000
         10   1.000000000   0.333333333   0.000000000
         11  -0.333333333   0.000000000   1.000000000
         12   0.333333333   0.000000000   1.000000000

     Diagonalizing the dynamical matrix

     q = (   -0.333333333  -1.000000000   0.000000000 ) 

 **************************************************************************
     freq (    1) =       5.531007 [THz] =     184.494522 [cm-1]
     freq (    2) =       5.531007 [THz] =     184.494522 [cm-1]
     freq (    3) =      10.990591 [THz] =     366.606658 [cm-1]
     freq (    4) =      10.990591 [THz] =     366.606658 [cm-1]
     freq (    5) =      14.009839 [THz] =     467.317941 [cm-1]
     freq (    6) =      14.009839 [THz] =     467.317941 [cm-1]
 **************************************************************************
 
     init_run     :      0.70s CPU      1.32s WALL (      15 calls)
     electrons    :    717.45s CPU    749.41s WALL (      15 calls)

     Called by init_run:
     wfcinit      :      0.00s CPU      0.14s WALL (      15 calls)
     potinit      :      0.39s CPU      0.79s WALL (      15 calls)
     hinit0       :      0.21s CPU      0.24s WALL (      15 calls)

     Called by electrons:
     c_bands      :    717.45s CPU    749.41s WALL (      15 calls)
     v_of_rho     :      0.18s CPU      0.20s WALL (      16 calls)

     Called by c_bands:
     init_us_2    :      4.13s CPU      4.64s WALL (  435994 calls)
     cegterg      :    619.75s CPU    641.09s WALL (   17508 calls)

     Called by *egterg:
     cdiaghg      :     30.13s CPU     30.46s WALL (  234898 calls)
     h_psi        :  10392.78s CPU  10742.16s WALL ( 4719703 calls)
     g_psi        :      0.31s CPU      0.51s WALL (  217390 calls)

     Called by h_psi:
     h_psi:calbec :    569.42s CPU    571.01s WALL ( 4719703 calls)
     vloc_psi     :   9437.71s CPU   9756.93s WALL ( 4719703 calls)
     add_vuspsi   :    381.93s CPU    389.17s WALL ( 4719703 calls)

     General routines
     calbec       :   1074.07s CPU   1082.26s WALL ( 9487300 calls)
     fft          :      2.75s CPU      3.07s WALL (   14153 calls)
     ffts         :      5.88s CPU      6.37s WALL (   53844 calls)
     fftw         :  11033.61s CPU  11222.35s WALL (******** calls)
     davcio       :     20.77s CPU     25.48s WALL ( 1913399 calls)
 
     Parallel routines
     fft_scatt_xy :     76.99s CPU    248.38s WALL (******** calls)
     fft_scatt_yz :  10405.09s CPU   9269.15s WALL (******** calls)
 
     PHONON       :      3h51m CPU      3h59m WALL

     INITIALIZATION: 
     phq_setup    :      0.32s CPU      0.74s WALL (      16 calls)
     phq_init     :     84.76s CPU     85.35s WALL (      16 calls)
 
     phq_init     :     84.76s CPU     85.35s WALL (      16 calls)
     set_drhoc    :      0.03s CPU      0.03s WALL (      48 calls)
     init_vloc    :      0.01s CPU      0.01s WALL (      16 calls)
     init_us_1    :      0.09s CPU      0.12s WALL (      16 calls)
 
     DYNAMICAL MATRIX:
     dynmat0      :     79.51s CPU     79.92s WALL (      16 calls)
     phqscf       :  12995.87s CPU  13460.20s WALL (      16 calls)
     dynmatrix    :      0.20s CPU      0.53s WALL (      16 calls)
 
     phqscf       :  12995.87s CPU  13460.20s WALL (      16 calls)
     solve_linter :  12956.70s CPU  13418.77s WALL (      76 calls)
     drhodv       :     39.06s CPU     40.22s WALL (      76 calls)
 
     dynmat0      :     79.51s CPU     79.92s WALL (      16 calls)
     dynmat_us    :     79.43s CPU     79.70s WALL (      16 calls)
     d2ionq       :      0.01s CPU      0.01s WALL (      16 calls)
     dynmatcc     :      0.06s CPU      0.08s WALL (      16 calls)
 
     dynmat_us    :     79.43s CPU     79.70s WALL (      16 calls)
 
     phqscf       :  12995.87s CPU  13460.20s WALL (      16 calls)
     solve_linter :  12956.70s CPU  13418.77s WALL (      76 calls)
 
     solve_linter :  12956.70s CPU  13418.77s WALL (      76 calls)
     dvqpsi_us    :    207.05s CPU    213.53s WALL (   53388 calls)
     ortho        :     43.58s CPU     44.75s WALL (  385767 calls)
     cgsolve      :  11125.25s CPU  11491.98s WALL (  385767 calls)
     incdrhoscf   :    855.43s CPU    899.68s WALL (  385551 calls)
     vpsifft      :    733.76s CPU    766.84s WALL (  331515 calls)
     dv_of_drho   :      0.90s CPU      0.98s WALL (     666 calls)
     mix_pot      :      1.59s CPU      4.05s WALL (     543 calls)
     psymdvscf    :      4.27s CPU      4.49s WALL (     538 calls)
 
     dvqpsi_us    :    207.05s CPU    213.53s WALL (   53388 calls)
     dvqpsi_us_on :     76.84s CPU     78.29s WALL (   53388 calls)
 
     cgsolve      :  11125.25s CPU  11491.98s WALL (  385767 calls)
     ch_psi       :  10627.06s CPU  10994.05s WALL ( 4467297 calls)
 
     ch_psi       :  10627.06s CPU  10994.05s WALL ( 4467297 calls)
     h_psi        :  10392.78s CPU  10742.16s WALL ( 4719703 calls)
     last         :    828.97s CPU    845.53s WALL ( 4467297 calls)
 
     h_psi        :  10392.78s CPU  10742.16s WALL ( 4719703 calls)
     add_vuspsi   :    381.93s CPU    389.17s WALL ( 4719703 calls)
 
     incdrhoscf   :    855.43s CPU    899.68s WALL (  385551 calls)
 
 
      General routines
     calbec       :   1074.07s CPU   1082.26s WALL ( 9487300 calls)
     fft          :      2.75s CPU      3.07s WALL (   14153 calls)
     ffts         :      5.88s CPU      6.37s WALL (   53844 calls)
     fftw         :  11033.61s CPU  11222.35s WALL (******** calls)
     davcio       :     20.77s CPU     25.48s WALL ( 1913399 calls)
     write_rec    :      0.62s CPU      6.32s WALL (     619 calls)
 
 
     PHONON       :      3h51m CPU      3h59m WALL

 
   This run was terminated on:  22:39:25  11Jan2021            

=------------------------------------------------------------------------------=
   JOB DONE.
=------------------------------------------------------------------------------=
