
     Program PWSCF v.6.7MaX starts on 11Jan2021 at 18:38:27 

     This program is part of the open-source Quantum ESPRESSO suite
     for quantum simulation of materials; please cite
         "P. Giannozzi et al., J. Phys.:Condens. Matter 21 395502 (2009);
         "P. Giannozzi et al., J. Phys.:Condens. Matter 29 465901 (2017);
          URL http://www.quantum-espresso.org", 
     in publications or presentations arising from this work. More details at
     http://www.quantum-espresso.org/quote

     Parallel version (MPI), running on    24 processors

     MPI processes distributed on     1 nodes
     R & G space division:  proc/nbgrp/npool/nimage =      24
     Reading input from scf.in

     Current dimensions of program PWSCF are:
     Max number of different atomic species (ntypx) = 10
     Max number of k-points (npk) =  40000
     Max angular momentum in pseudopotentials (lmaxx) =  3
     Message from routine read_pp_mesh:
     mesh size missing, using the one in header

     Subspace diagonalization in iterative solution of the eigenvalue problem:
     a serial algorithm will be used

 
     Parallelization info
     --------------------
     sticks:   dense  smooth     PW     G-vecs:    dense   smooth      PW
     Min          21      21      6                  317      317      56
     Max          22      22      7                  319      319      61
     Sum         511     511    163                 7631     7631    1411
 


     bravais-lattice index     =            2
     lattice parameter (alat)  =      10.2620  a.u.
     unit-cell volume          =     270.1693 (a.u.)^3
     number of atoms/cell      =            2
     number of atomic types    =            1
     number of electrons       =         8.00
     number of Kohn-Sham states=            8
     kinetic-energy cutoff     =      35.0000  Ry
     charge density cutoff     =     140.0000  Ry
     scf convergence threshold =      1.0E-13
     mixing beta               =       0.7000
     number of iterations used =            8  plain     mixing
     Exchange-correlation= PBE
                           (   1   4   3   4   0   0   0)
     Non magnetic calculation with spin-orbit


     celldm(1)=  10.262000  celldm(2)=   0.000000  celldm(3)=   0.000000
     celldm(4)=   0.000000  celldm(5)=   0.000000  celldm(6)=   0.000000

     crystal axes: (cart. coord. in units of alat)
               a(1) = (  -0.500000   0.000000   0.500000 )  
               a(2) = (   0.000000   0.500000   0.500000 )  
               a(3) = (  -0.500000   0.500000   0.000000 )  

     reciprocal axes: (cart. coord. in units 2 pi/alat)
               b(1) = ( -1.000000 -1.000000  1.000000 )  
               b(2) = (  1.000000  1.000000  1.000000 )  
               b(3) = ( -1.000000  1.000000 -1.000000 )  


     PseudoPot. # 1 for Si read from file:
     /THL8/home/jwluo/filepool/pseudos/Si_r.upf
     MD5 check sum: 538a76d466da59d525cdbd01722ac2dd
     Pseudo is Norm-conserving + core correction, Zval =  4.0
     Generated using ONCVPSP code by D. R. Hamann
     Using radial grid of 1528 points, 10 beta functions with: 
                l(1) =   0
                l(2) =   0
                l(3) =   1
                l(4) =   1
                l(5) =   1
                l(6) =   1
                l(7) =   2
                l(8) =   2
                l(9) =   2
               l(10) =   2

     atomic species   valence    mass     pseudopotential
        Si             4.00    28.08550     Si( 1.00)

     48 Sym. Ops., with inversion, found (24 have fractional translation)



   Cartesian axes

     site n.     atom                  positions (alat units)
         1           Si  tau(   1) = (   0.0000000   0.0000000   0.0000000  )
         2           Si  tau(   2) = (   0.2500000   0.2500000   0.2500000  )

     number of k points=    72
                       cart. coord. in units 2pi/alat
        k(    1) = (   0.0000000   0.0000000   0.0000000), wk =   0.0005787
        k(    2) = (  -0.0833333   0.0833333  -0.0833333), wk =   0.0046296
        k(    3) = (  -0.1666667   0.1666667  -0.1666667), wk =   0.0046296
        k(    4) = (  -0.2500000   0.2500000  -0.2500000), wk =   0.0046296
        k(    5) = (  -0.3333333   0.3333333  -0.3333333), wk =   0.0046296
        k(    6) = (  -0.4166667   0.4166667  -0.4166667), wk =   0.0046296
        k(    7) = (   0.5000000  -0.5000000   0.5000000), wk =   0.0023148
        k(    8) = (   0.0000000   0.1666667   0.0000000), wk =   0.0034722
        k(    9) = (  -0.0833333   0.2500000  -0.0833333), wk =   0.0138889
        k(   10) = (  -0.1666667   0.3333333  -0.1666667), wk =   0.0138889
        k(   11) = (  -0.2500000   0.4166667  -0.2500000), wk =   0.0138889
        k(   12) = (  -0.3333333   0.5000000  -0.3333333), wk =   0.0138889
        k(   13) = (   0.5833333  -0.4166667   0.5833333), wk =   0.0138889
        k(   14) = (   0.5000000  -0.3333333   0.5000000), wk =   0.0138889
        k(   15) = (   0.4166667  -0.2500000   0.4166667), wk =   0.0138889
        k(   16) = (   0.3333333  -0.1666667   0.3333333), wk =   0.0138889
        k(   17) = (   0.2500000  -0.0833333   0.2500000), wk =   0.0138889
        k(   18) = (   0.1666667  -0.0000000   0.1666667), wk =   0.0069444
        k(   19) = (   0.0000000   0.3333333   0.0000000), wk =   0.0034722
        k(   20) = (  -0.0833333   0.4166667  -0.0833333), wk =   0.0138889
        k(   21) = (  -0.1666667   0.5000000  -0.1666667), wk =   0.0138889
        k(   22) = (  -0.2500000   0.5833333  -0.2500000), wk =   0.0138889
        k(   23) = (   0.6666667  -0.3333333   0.6666667), wk =   0.0138889
        k(   24) = (   0.5833333  -0.2500000   0.5833333), wk =   0.0138889
        k(   25) = (   0.5000000  -0.1666667   0.5000000), wk =   0.0138889
        k(   26) = (   0.4166667  -0.0833333   0.4166667), wk =   0.0138889
        k(   27) = (   0.3333333   0.0000000   0.3333333), wk =   0.0069444
        k(   28) = (   0.0000000   0.5000000   0.0000000), wk =   0.0034722
        k(   29) = (  -0.0833333   0.5833333  -0.0833333), wk =   0.0138889
        k(   30) = (  -0.1666667   0.6666667  -0.1666667), wk =   0.0138889
        k(   31) = (   0.7500000  -0.2500000   0.7500000), wk =   0.0138889
        k(   32) = (   0.6666667  -0.1666667   0.6666667), wk =   0.0138889
        k(   33) = (   0.5833333  -0.0833333   0.5833333), wk =   0.0138889
        k(   34) = (   0.5000000   0.0000000   0.5000000), wk =   0.0069444
        k(   35) = (   0.0000000   0.6666667   0.0000000), wk =   0.0034722
        k(   36) = (  -0.0833333   0.7500000  -0.0833333), wk =   0.0138889
        k(   37) = (   0.8333333  -0.1666667   0.8333333), wk =   0.0138889
        k(   38) = (   0.7500000  -0.0833333   0.7500000), wk =   0.0138889
        k(   39) = (   0.6666667  -0.0000000   0.6666667), wk =   0.0069444
        k(   40) = (   0.0000000   0.8333333   0.0000000), wk =   0.0034722
        k(   41) = (   0.9166667  -0.0833333   0.9166667), wk =   0.0138889
        k(   42) = (   0.8333333   0.0000000   0.8333333), wk =   0.0069444
        k(   43) = (   0.0000000  -1.0000000   0.0000000), wk =   0.0017361
        k(   44) = (  -0.1666667   0.3333333   0.0000000), wk =   0.0138889
        k(   45) = (  -0.2500000   0.4166667  -0.0833333), wk =   0.0277778
        k(   46) = (  -0.3333333   0.5000000  -0.1666667), wk =   0.0277778
        k(   47) = (   0.5833333  -0.4166667   0.7500000), wk =   0.0277778
        k(   48) = (   0.5000000  -0.3333333   0.6666667), wk =   0.0138889
        k(   49) = (  -0.1666667   0.5000000   0.0000000), wk =   0.0138889
        k(   50) = (  -0.2500000   0.5833333  -0.0833333), wk =   0.0277778
        k(   51) = (   0.6666667  -0.3333333   0.8333333), wk =   0.0277778
        k(   52) = (   0.5833333  -0.2500000   0.7500000), wk =   0.0277778
        k(   53) = (   0.5000000  -0.1666667   0.6666667), wk =   0.0277778
        k(   54) = (   0.4166667  -0.0833333   0.5833333), wk =   0.0277778
        k(   55) = (   0.3333333   0.0000000   0.5000000), wk =   0.0138889
        k(   56) = (  -0.1666667   0.6666667  -0.0000000), wk =   0.0138889
        k(   57) = (   0.7500000  -0.2500000   0.9166667), wk =   0.0277778
        k(   58) = (   0.6666667  -0.1666667   0.8333333), wk =   0.0277778
        k(   59) = (   0.5833333  -0.0833333   0.7500000), wk =   0.0277778
        k(   60) = (   0.5000000   0.0000000   0.6666667), wk =   0.0138889
        k(   61) = (   0.8333333  -0.1666667   1.0000000), wk =   0.0138889
        k(   62) = (   0.7500000  -0.0833333   0.9166667), wk =   0.0277778
        k(   63) = (   0.6666667   0.0000000   0.8333333), wk =   0.0138889
        k(   64) = (  -0.1666667  -1.0000000  -0.0000000), wk =   0.0069444
        k(   65) = (   0.6666667  -0.3333333   1.0000000), wk =   0.0138889
        k(   66) = (   0.5833333  -0.2500000   0.9166667), wk =   0.0277778
        k(   67) = (   0.5000000  -0.1666667   0.8333333), wk =   0.0138889
        k(   68) = (   0.6666667  -0.1666667   1.0000000), wk =   0.0138889
        k(   69) = (   0.5833333  -0.0833333   0.9166667), wk =   0.0277778
        k(   70) = (   0.5000000   0.0000000   0.8333333), wk =   0.0138889
        k(   71) = (  -0.3333333  -1.0000000   0.0000000), wk =   0.0069444
        k(   72) = (  -0.5000000  -1.0000000   0.0000000), wk =   0.0034722

     Dense  grid:     7631 G-vectors     FFT dimensions: (  32,  32,  32)

     Estimated max dynamical RAM per process >       4.09 MB

     Estimated total dynamical RAM >      98.18 MB

     Initial potential from superposition of free atoms

     starting charge    7.99877, renormalised to    8.00000
     Starting wfcs are   16 randomized atomic wfcs

     total cpu time spent up to now is        2.2 secs

     Self-consistent Calculation

     iteration #  1     ecut=    35.00 Ry     beta= 0.70
     Davidson diagonalization with overlap
     ethr =  1.00E-02,  avg # of iterations =  2.0

     Threshold (ethr) on eigenvalues was too large:
     Diagonalizing with lowered threshold

     Davidson diagonalization with overlap
     ethr =  5.69E-04,  avg # of iterations =  2.0

     total cpu time spent up to now is        4.6 secs

     total energy              =     -16.92220044 Ry
     estimated scf accuracy    <       0.05375617 Ry

     iteration #  2     ecut=    35.00 Ry     beta= 0.70
     Davidson diagonalization with overlap
     ethr =  6.72E-04,  avg # of iterations =  1.0

     total cpu time spent up to now is        5.4 secs

     total energy              =     -16.92379669 Ry
     estimated scf accuracy    <       0.00287861 Ry

     iteration #  3     ecut=    35.00 Ry     beta= 0.70
     Davidson diagonalization with overlap
     ethr =  3.60E-05,  avg # of iterations =  2.3

     total cpu time spent up to now is        6.1 secs

     total energy              =     -16.92441272 Ry
     estimated scf accuracy    <       0.00006311 Ry

     iteration #  4     ecut=    35.00 Ry     beta= 0.70
     Davidson diagonalization with overlap
     ethr =  7.89E-07,  avg # of iterations =  4.9

     total cpu time spent up to now is        6.8 secs

     total energy              =     -16.92449105 Ry
     estimated scf accuracy    <       0.00000026 Ry

     iteration #  5     ecut=    35.00 Ry     beta= 0.70
     Davidson diagonalization with overlap
     ethr =  3.29E-09,  avg # of iterations =  7.1

     total cpu time spent up to now is        7.7 secs

     total energy              =     -16.92449271 Ry
     estimated scf accuracy    <       0.00000002 Ry

     iteration #  6     ecut=    35.00 Ry     beta= 0.70
     Davidson diagonalization with overlap
     ethr =  2.84E-10,  avg # of iterations =  3.0

     total cpu time spent up to now is        8.1 secs

     total energy              =     -16.92449272 Ry
     estimated scf accuracy    <          3.4E-09 Ry

     iteration #  7     ecut=    35.00 Ry     beta= 0.70
     Davidson diagonalization with overlap
     ethr =  4.26E-11,  avg # of iterations =  2.9

     total cpu time spent up to now is        8.6 secs

     total energy              =     -16.92449272 Ry
     estimated scf accuracy    <          2.8E-10 Ry

     iteration #  8     ecut=    35.00 Ry     beta= 0.70
     Davidson diagonalization with overlap
     ethr =  3.49E-12,  avg # of iterations =  3.7

     total cpu time spent up to now is        9.1 secs

     total energy              =     -16.92449272 Ry
     estimated scf accuracy    <          7.2E-13 Ry

     iteration #  9     ecut=    35.00 Ry     beta= 0.70
     Davidson diagonalization with overlap
     ethr =  1.00E-13,  avg # of iterations =  4.6

     total cpu time spent up to now is        9.6 secs

     End of self-consistent calculation

          k = 0.0000 0.0000 0.0000 (   941 PWs)   bands (ev):

    -5.7332  -5.7332   6.2001   6.2001   6.2480   6.2480   6.2480   6.2480

          k =-0.0833 0.0833-0.0833 (   944 PWs)   bands (ev):

    -5.6422  -5.6422   5.3704   5.3704   6.0724   6.0724   6.1036   6.1036

          k =-0.1667 0.1667-0.1667 (   923 PWs)   bands (ev):

    -5.3721  -5.3721   3.8471   3.8471   5.7648   5.7648   5.7960   5.7960

          k =-0.2500 0.2500-0.2500 (   941 PWs)   bands (ev):

    -4.9338  -4.9338   2.3004   2.3004   5.4548   5.4548   5.4861   5.4861

          k =-0.3333 0.3333-0.3333 (   938 PWs)   bands (ev):

    -4.3569  -4.3569   0.8932   0.8932   5.2136   5.2136   5.2451   5.2451

          k =-0.4167 0.4167-0.4167 (   944 PWs)   bands (ev):

    -3.7367  -3.7367  -0.2366  -0.2366   5.0649   5.0649   5.0965   5.0965

          k = 0.5000-0.5000 0.5000 (   960 PWs)   bands (ev):

    -3.4028  -3.4028  -0.7419  -0.7419   5.0150   5.0150   5.0467   5.0467

          k = 0.0000 0.1667 0.0000 (   937 PWs)   bands (ev):

    -5.6117  -5.6117   5.5345   5.5345   5.7908   5.7908   5.8122   5.8122

          k =-0.0833 0.2500-0.0833 (   932 PWs)   bands (ev):

    -5.4008  -5.4008   4.3005   4.3005   5.4355   5.4355   5.6279   5.6279

          k =-0.1667 0.3333-0.1667 (   941 PWs)   bands (ev):

    -5.0170  -5.0170   2.7979   2.7979   5.1217   5.1217   5.3039   5.3039

          k =-0.2500 0.4167-0.2500 (   940 PWs)   bands (ev):

    -4.4812  -4.4812   1.3612   1.3612   4.9082   4.9082   4.9536   4.9536

          k =-0.3333 0.5000-0.3333 (   941 PWs)   bands (ev):

    -3.8559  -3.8559   0.1309   0.1309   4.6517   4.6517   4.8236   4.8236

          k = 0.5833-0.4167 0.5833 (   946 PWs)   bands (ev):

    -3.3654  -3.3654  -0.6388  -0.6388   4.4471   4.4471   4.8539   4.8539

          k = 0.5000-0.3333 0.5000 (   944 PWs)   bands (ev):

    -3.4862  -3.4862  -0.4611  -0.4611   4.3518   4.3518   4.9970   4.9970

          k = 0.4167-0.2500 0.4167 (   938 PWs)   bands (ev):

    -4.0678  -4.0678   0.5111   0.5111   4.3792   4.3792   5.2368   5.2368

          k = 0.3333-0.1667 0.3333 (   944 PWs)   bands (ev):

    -4.6755  -4.6755   1.8257   1.8257   4.5391   4.5391   5.5475   5.5475

          k = 0.2500-0.0833 0.2500 (   931 PWs)   bands (ev):

    -5.1641  -5.1641   3.2848   3.2848   4.8435   4.8435   5.8776   5.8776

          k = 0.1667-0.0000 0.1667 (   933 PWs)   bands (ev):

    -5.4913  -5.4913   4.6388   4.6388   5.3664   5.3664   6.1139   6.1139

          k = 0.0000 0.3333 0.0000 (   941 PWs)   bands (ev):

    -5.2492  -5.2492   4.1890   4.1890   5.0302   5.0302   5.0437   5.0437

          k =-0.0833 0.4167-0.0833 (   946 PWs)   bands (ev):

    -4.9222  -4.9222   3.1015   3.1015   4.6848   4.6848   4.7064   4.7064

          k =-0.1667 0.5000-0.1667 (   942 PWs)   bands (ev):

    -4.4342  -4.4342   1.7907   1.7907   4.2357   4.2357   4.4837   4.4837

          k =-0.2500 0.5833-0.2500 (   944 PWs)   bands (ev):

    -3.8266  -3.8266   0.5559   0.5559   3.7964   3.7964   4.3993   4.3993

          k = 0.6667-0.3333 0.6667 (   942 PWs)   bands (ev):

    -3.2434  -3.2434  -0.3782  -0.3782   3.4517   3.4517   4.4531   4.4531

          k = 0.5833-0.2500 0.5833 (   941 PWs)   bands (ev):

    -3.1290  -3.1290  -0.5380  -0.5380   3.2377   3.2377   4.6371   4.6371

          k = 0.5000-0.1667 0.5000 (   945 PWs)   bands (ev):

    -3.6282  -3.6282   0.2208   0.2208   3.1812   3.1812   4.9323   4.9323

          k = 0.4167-0.0833 0.4167 (   944 PWs)   bands (ev):

    -4.2523  -4.2523   1.3677   1.3677   3.3259   3.3259   5.3009   5.3009

          k = 0.3333 0.0000 0.3333 (   935 PWs)   bands (ev):

    -4.7841  -4.7841   2.5098   2.5098   3.8167   3.8167   5.6656   5.6656

          k = 0.0000 0.5000 0.0000 (   950 PWs)   bands (ev):

    -4.6516  -4.6516   2.7094   2.7094   4.3351   4.3351   4.3436   4.3436

          k =-0.0833 0.5833-0.0833 (   947 PWs)   bands (ev):

    -4.2151  -4.2151   1.7991   1.7991   3.8736   3.8736   4.0929   4.0929

          k =-0.1667 0.6667-0.1667 (   946 PWs)   bands (ev):

    -3.6400  -3.6400   0.7701   0.7701   3.2414   3.2414   3.9855   3.9855

          k = 0.7500-0.2500 0.7500 (   948 PWs)   bands (ev):

    -3.0162  -3.0162  -0.1559  -0.1559   2.6947   2.6947   4.0241   4.0241

          k = 0.6667-0.1667 0.6667 (   948 PWs)   bands (ev):

    -2.6925  -2.6925  -0.5704  -0.5704   2.3317   2.3317   4.2042   4.2042

          k = 0.5833-0.0833 0.5833 (   950 PWs)   bands (ev):

    -3.0683  -3.0683  -0.0765  -0.0765   2.2124   2.2124   4.5092   4.5092

          k = 0.5000 0.0000 0.5000 (   931 PWs)   bands (ev):

    -3.6902  -3.6902   0.7464   0.7464   2.4765   2.4765   4.9018   4.9018

          k = 0.0000 0.6667 0.0000 (   950 PWs)   bands (ev):

    -3.8296  -3.8296   1.2153   1.2153   3.8089   3.8089   3.8139   3.8139

          k =-0.0833 0.7500-0.0833 (   950 PWs)   bands (ev):

    -3.2950  -3.2950   0.4294   0.4294   3.3254   3.3254   3.6687   3.6687

          k = 0.8333-0.1667 0.8333 (   946 PWs)   bands (ev):

    -2.6662  -2.6662  -0.3391  -0.3391   2.5973   2.5973   3.6748   3.6748

          k = 0.7500-0.0833 0.7500 (   947 PWs)   bands (ev):

    -2.1974  -2.1974  -0.8301  -0.8301   2.0186   2.0186   3.8286   3.8286

          k = 0.6667-0.0000 0.6667 (   955 PWs)   bands (ev):

    -2.4703  -2.4703  -0.5439  -0.5439   1.8167   1.8167   4.1173   4.1173

          k = 0.0000 0.8333 0.0000 (   958 PWs)   bands (ev):

    -2.8005  -2.8005  -0.2357  -0.2357   3.4850   3.4850   3.4873   3.4873

          k = 0.9167-0.0833 0.9167 (   958 PWs)   bands (ev):

    -2.1870  -2.1870  -0.9236  -0.9236   3.0544   3.0544   3.4525   3.4525

          k = 0.8333 0.0000 0.8333 (   954 PWs)   bands (ev):

    -1.7314  -1.7314  -1.3275  -1.3275   2.3837   2.3837   3.5696   3.5696

          k = 0.0000-1.0000 0.0000 (   950 PWs)   bands (ev):

    -1.5902  -1.5902  -1.5902  -1.5902   3.3765   3.3765   3.3765   3.3765

          k =-0.1667 0.3333 0.0000 (   936 PWs)   bands (ev):

    -5.1322  -5.1322   3.5004   3.5004   4.5954   4.5954   5.5242   5.5242

          k =-0.2500 0.4167-0.0833 (   942 PWs)   bands (ev):

    -4.6959  -4.6959   2.2587   2.2587   4.0628   4.0628   5.2485   5.2485

          k =-0.3333 0.5000-0.1667 (   941 PWs)   bands (ev):

    -4.1209  -4.1209   0.9567   0.9567   3.7932   3.7932   4.9207   4.9207

          k = 0.5833-0.4167 0.7500 (   941 PWs)   bands (ev):

    -3.4994  -3.4994  -0.1332  -0.1332   3.6658   3.6658   4.6739   4.6739

          k = 0.5000-0.3333 0.6667 (   944 PWs)   bands (ev):

    -3.1612  -3.1612  -0.6314  -0.6314   3.6302   3.6302   4.5821   4.5821

          k =-0.1667 0.5000 0.0000 (   948 PWs)   bands (ev):

    -4.5411  -4.5411   2.3065   2.3065   3.8995   3.8995   4.6027   4.6027

          k =-0.2500 0.5833-0.0833 (   946 PWs)   bands (ev):

    -4.0087  -4.0087   1.2559   1.2559   3.3620   3.3620   4.3139   4.3139

          k = 0.6667-0.3333 0.8333 (   945 PWs)   bands (ev):

    -3.3835  -3.3835   0.2013   0.2013   3.0053   3.0053   4.1030   4.1030

          k = 0.5833-0.2500 0.7500 (   950 PWs)   bands (ev):

    -2.8868  -2.8868  -0.5052  -0.5052   2.7595   2.7595   4.0848   4.0848

          k = 0.5000-0.1667 0.6667 (   945 PWs)   bands (ev):

    -3.0224  -3.0224  -0.3180  -0.3180   2.6412   2.6412   4.2576   4.2576

          k = 0.4167-0.0833 0.5833 (   945 PWs)   bands (ev):

    -3.6125  -3.6125   0.5592   0.5592   2.7153   2.7153   4.5749   4.5749

          k = 0.3333 0.0000 0.5000 (   941 PWs)   bands (ev):

    -4.2149  -4.2149   1.5387   1.5387   3.1305   3.1305   4.9571   4.9571

          k =-0.1667 0.6667-0.0000 (   945 PWs)   bands (ev):

    -3.7310  -3.7310   1.0401   1.0401   3.3896   3.3896   3.8177   3.8177

          k = 0.7500-0.2500 0.9167 (   947 PWs)   bands (ev):

    -3.1255  -3.1255   0.2046   0.2046   2.8017   2.8017   3.6005   3.6005

          k = 0.6667-0.1667 0.8333 (   946 PWs)   bands (ev):

    -2.5363  -2.5363  -0.5102  -0.5102   2.2806   2.2806   3.6084   3.6084

          k = 0.5833-0.0833 0.7500 (   946 PWs)   bands (ev):

    -2.4653  -2.4653  -0.5812  -0.5812   1.9918   1.9918   3.8071   3.8071

          k = 0.5000 0.0000 0.6667 (   948 PWs)   bands (ev):

    -3.0029  -3.0029   0.0093   0.0093   2.0786   2.0786   4.1525   4.1525

          k = 0.8333-0.1667 1.0000 (   948 PWs)   bands (ev):

    -2.7231  -2.7231  -0.2722  -0.2722   3.1057   3.1057   3.3024   3.3024

          k = 0.7500-0.0833 0.9167 (   947 PWs)   bands (ev):

    -2.0942  -2.0942  -0.9152  -0.9152   2.4771   2.4771   3.2584   3.2584

          k = 0.6667 0.0000 0.8333 (   946 PWs)   bands (ev):

    -1.9396  -1.9396  -1.0286  -1.0286   1.9790   1.9790   3.4557   3.4557

          k =-0.1667-1.0000-0.0000 (   958 PWs)   bands (ev):

    -1.5534  -1.5534  -1.5509  -1.5509   3.0665   3.0665   3.0742   3.0742

          k = 0.6667-0.3333 1.0000 (   937 PWs)   bands (ev):

    -3.4446  -3.4446   0.5825   0.5825   2.6597   2.6597   3.9346   3.9346

          k = 0.5833-0.2500 0.9167 (   940 PWs)   bands (ev):

    -2.8207  -2.8207  -0.1874  -0.1874   2.3125   2.3125   3.5974   3.5974

          k = 0.5000-0.1667 0.8333 (   942 PWs)   bands (ev):

    -2.4603  -2.4603  -0.6166  -0.6166   2.2195   2.2195   3.4679   3.4679

          k = 0.6667-0.1667 1.0000 (   942 PWs)   bands (ev):

    -2.5093  -2.5093  -0.4164  -0.4164   2.4609   2.4609   3.0798   3.0798

          k = 0.5833-0.0833 0.9167 (   946 PWs)   bands (ev):

    -1.9862  -1.9862  -0.9229  -0.9229   2.1454   2.1454   2.9255   2.9255

          k = 0.5000 0.0000 0.8333 (   944 PWs)   bands (ev):

    -2.2177  -2.2177  -0.6931  -0.6931   2.0206   2.0206   3.1506   3.1506

          k =-0.3333-1.0000 0.0000 (   946 PWs)   bands (ev):

    -1.4728  -1.4728  -1.4682  -1.4682   2.5788   2.5788   2.5904   2.5904

          k =-0.5000-1.0000 0.0000 (   952 PWs)   bands (ev):

    -1.4293  -1.4293  -1.4237  -1.4237   2.3704   2.3704   2.3832   2.3832

     highest occupied level (ev):     6.2480

!    total energy              =     -16.92449272 Ry
     estimated scf accuracy    <          2.7E-14 Ry

     The total energy is the sum of the following terms:
     one-electron contribution =       4.96257925 Ry
     hartree contribution      =       1.09485808 Ry
     xc contribution           =      -6.18427485 Ry
     ewald contribution        =     -16.79765520 Ry

     convergence has been achieved in   9 iterations

     Forces acting on atoms (cartesian axes, Ry/au):

     atom    1 type  1   force =     0.00000000    0.00000000    0.00000000
     atom    2 type  1   force =    -0.00000000    0.00000000   -0.00000000

     Total force =     0.000000     Total SCF correction =     0.000000


     Computing stress (Cartesian axis) and pressure

          total   stress  (Ry/bohr**3)                   (kbar)     P=       19.52
   0.00013267  -0.00000000  -0.00000000           19.52       -0.00       -0.00
  -0.00000000   0.00013267   0.00000000           -0.00       19.52        0.00
  -0.00000000   0.00000000   0.00013267           -0.00        0.00       19.52


     Writing output data file ./si.save/
 
     init_run     :      0.30s CPU      1.39s WALL (       1 calls)
     electrons    :      6.30s CPU      7.59s WALL (       1 calls)
     forces       :      0.27s CPU      0.29s WALL (       1 calls)
     stress       :      0.27s CPU      0.37s WALL (       1 calls)

     Called by init_run:
     wfcinit      :      0.28s CPU      0.94s WALL (       1 calls)
     potinit      :      0.01s CPU      0.06s WALL (       1 calls)
     hinit0       :      0.01s CPU      0.34s WALL (       1 calls)

     Called by electrons:
     c_bands      :      5.69s CPU      6.55s WALL (      10 calls)
     sum_band     :      0.58s CPU      0.80s WALL (      10 calls)
     v_of_rho     :      0.02s CPU      0.05s WALL (      10 calls)
     mix_rho      :      0.01s CPU      0.03s WALL (      10 calls)

     Called by c_bands:
     init_us_2    :      0.03s CPU      0.03s WALL (    1656 calls)
     cegterg      :      5.08s CPU      5.87s WALL (     720 calls)

     Called by *egterg:
     cdiaghg      :      0.20s CPU      0.41s WALL (    3065 calls)
     h_psi        :      4.69s CPU      5.77s WALL (    3209 calls)
     g_psi        :      0.00s CPU      0.01s WALL (    2417 calls)

     Called by h_psi:
     h_psi:calbec :      0.26s CPU      0.42s WALL (    3209 calls)
     vloc_psi     :      4.17s CPU      5.08s WALL (    3209 calls)
     add_vuspsi   :      0.24s CPU      0.26s WALL (    3209 calls)

     General routines
     calbec       :      0.45s CPU      0.70s WALL (    3569 calls)
     fft          :      0.03s CPU      0.34s WALL (     155 calls)
     ffts         :      0.00s CPU      0.00s WALL (      40 calls)
     fftw         :      4.50s CPU      5.54s WALL (   93916 calls)
 
     Parallel routines
     fft_scatt_xy :      0.19s CPU      0.24s WALL (   94111 calls)
     fft_scatt_yz :      3.28s CPU      4.04s WALL (   94111 calls)
 
     PWSCF        :      7.47s CPU     11.86s WALL

 
   This run was terminated on:  18:38:39  11Jan2021            

=------------------------------------------------------------------------------=
   JOB DONE.
=------------------------------------------------------------------------------=
